
------- case.scf0 --------
 Flat Integration
 New Mode for Coulomb Integral
 Consistent 3/8+Simpson combinations
 Extension of core to zero
 LDM version in phi
 Fifth-order quadrature in outwin


            ---------
:ITE062: 62. ITERATION
            ---------

:NATO :    1 INDEPENDENT AND    2 TOTAL ATOMS IN UNITCELL
       SUBSTANCE: aU                                                          

       LATTICE                      = CXY 
:POT  : POTENTIAL OPTION EX_LDA EC_LDA VX_LDA VC_LDA
:LAT  : LATTICE CONSTANTS=  6.41698 13.02167 11.24187    1.571    1.571    1.571
:VOL  : UNIT CELL VOLUME =     469.68395
       MODE OF CALCULATION IS       = RELA
       NON-SPINPOLARIZED CALCULATION
:IFFT  : FFT-parameters:   54  100   90 Factor: 2.00


   CONVERGENCE PARAMETER FOR PSEUDOCHARGE: NCON=  9
   MAXIMAL VALUE OF RMT(JATOM)*ABSK(NKK) : RK  =27.59878


:VKCOUL :  VK-COUL convergence: 0.601E-07
       ATOMNUMBER=  1 Pr1        VCOUL-ZERO =  0.83784E-01
:EFG001:                        EFG         =    -8.00123   *10**21  V / m**2
                               V20  TOT/SRF=    -6.92926    -0.02974
                               V22  TOT/SRF=     0.55087     0.00264
                               V22M TOT/SRF=     0.00000     0.00000
                               V21  TOT/SRF=     0.00000     0.00000
                               V21M TOT/SRF=     0.00000     0.00000

              4.55148    0.00000    0.00000        4.55148    0.00000    0.00000
              0.00000    3.44974    0.00000        0.00000    3.44974    0.00000
              0.00000    0.00000   -8.00123        0.00000    0.00000   -8.00123

         MAIN DIRECTIONS OF THE EFG   1.0000  0.0000  0.0000
                                      0.0000  1.0000  0.0000
                                      0.0000  0.0000  1.0000
:ANG001:  ANGLE WITH OLD X-AXIS =         0.0

:ETA001:                         ASYMM. ETA =     0.13770


     HELLMANN-FEYNMAN-FORCE IN mRy/a.u. = |F|  Fx       Fy             Fz
:FHF001:   1.ATOM    608.461778483901      0.000000000000      0.000000000000   -608.461778483901

:FIT001: LUSE= 13 SIGMA OF V-XC FIT FOR ATOM  1  0.8815326E-05
:FIT001: LUSE= 13 SIGMA OF V-XC FIT FOR ATOM  1  0.8815326E-05
:DEN  : DENSITY INTEGRAL  =        -14150.91908038   (Ry)
       ELS_POTENTIAL_AT Z=0 and Z=0.5:   0.72690   0.72690
       ELS_POTENTIAL_AT Y=0 and Y=0.5:   0.06520   0.06520
:VZERO:v0,v0c,v0x   0.14614   0.72690  -0.58076 v5,v5c,v5x   0.14614   0.72690  -0.58076
:VZERY:v0,v0c,v0x  -0.71153   0.06520  -0.77673 v5,v5c,v5x  -0.71153   0.06520  -0.77673
:VZERX:v0,v0c,v0x  -1.12281  -0.37915  -0.74367 v5,v5c,v5x  -1.12281  -0.37915  -0.74367

------- case.scf1 --------
:LMAX-WF:   10   Non-Spherical LMAX:   4

          ATOMIC SPHERE DEPENDENT PARAMETERS FOR ATOM  Pr1       
:e__0001: OVERALL ENERGY PARAMETER IS    0.4416
          OVERALL BASIS SET ON ATOM IS LAPW
:E0_0001: E( 0)=    0.4416
             APW+lo
:E0_0001: E( 0)=   -2.0239   E(BOTTOM)=   -2.660   E(TOP)=   -1.388  4  5   173
             LOCAL ORBITAL
:E1_0001: E( 1)=    0.8416
             APW+lo
:E1_0001: E( 1)=   -0.5541   E(BOTTOM)=   -1.512   E(TOP)=    0.404  3  4   196
             LOCAL ORBITAL
:E3_0001: E( 3)=    0.6307   E(BOTTOM)=    0.423   E(TOP)=    0.839  0  1   115
             APW+lo
:E2_0001: E( 2)=    0.4416   E(BOTTOM)=    0.229   E(TOP)= -200.000  2 -1    88
             APW+lo

       K=   0.06250   0.00000   0.06250            1
:RKM  : MATRIX SIZE   441LOs:  40  RKM= 8.49  WEIGHT= 4.00  PGR:    
       EIGENVALUES ARE:
:EIG00001:      -1.9964103   -1.9812166   -0.7257532   -0.6447752   -0.6267987
:EIG00006:      -0.6207849   -0.6136606   -0.6132906    0.4093499    0.5438326
:EIG00011:       0.6367229    0.6389003    0.6389494    0.6428063    0.6462693
:EIG00016:       0.6575860    0.6621625    0.6626588    0.6656526    0.6683787
:EIG00021:       0.6728080    0.6753484    0.6767512    0.6810856    0.7116121
:EIG00026:       0.7255792    0.8057235    0.8193449    0.8468343    0.8790006
:EIG00031:       0.8956015    0.9841820    1.0289663    1.0744055    1.3762711
:EIG00036:       1.3765312    1.4640893    1.4680506    1.6293743    1.6811468
:EIG00041:       1.7520188    1.8534315    1.9348668    1.9495239    2.0540601
:EIG00046:       2.1019668    2.1159405    2.1870689    2.2372053    2.3355283
 
:EIG00051:       2.3845848    2.4380149    2.4570205    2.5339774    2.5650284
:EIG00056:       2.6400841    2.6681539    2.7057637    2.7946025    2.8553985
:EIG00061:       2.9222462    2.9321564    3.0726474    3.1360646    3.1558897
:EIG00066:       3.2567132    3.3142647    3.3464702    3.3587927    3.4119874
:EIG00071:       3.4202741    3.4706542    3.5018832    3.5654835    3.5829092
:EIG00076:       3.6239081    3.6500451    3.6943818    3.7198879    3.7499049
:EIG00081:       3.7690761    3.8138259    3.8272269    3.9105828    3.9195955
:EIG00086:       3.9494042    4.0435651    4.0546408    4.0870216    4.1008456
:EIG00091:       4.1343591    4.1714466    4.1972774    4.2163506    4.2296924
:EIG00096:       4.2720300    4.3120637    4.3241036    4.3371656    4.4150404
 
:EIG00101:       4.4918997    4.6149218    4.6290256    4.6982948    4.7271190
:EIG00106:       4.7276107    4.7835035    4.8030778    4.8380605    4.8692775
:EIG00111:       4.9538878    4.9966484    5.0009925    5.0593596    5.1151650
:EIG00116:       5.1514100    5.2064407    5.2189573    5.2622025    5.2984848
:EIG00121:       5.3085183    5.3805712    5.4382554    5.4517223    5.5053549
:EIG00126:       5.5926820    5.6289224    5.6498449    5.6839847    5.7297501
:EIG00131:       5.7403207    5.8068440    5.8237970    5.8319304    5.8610614
:EIG00136:       5.9430946    5.9671875    6.0258729    6.0288833    6.0627708
:EIG00141:       6.0838393    6.1066216    6.1476297    6.1740932    6.2394923
:EIG00146:       6.2416393    6.2502044    6.2799062    6.2895288    6.3670132
 
:EIG00151:       6.4171344    6.4272068    6.5064026    6.5230498    6.6014231
:EIG00156:       6.6839934    6.7773521    6.7891413    6.8181106    6.8801634
:EIG00161:       6.9504040    6.9633938    7.0096291    7.0363978    7.0460505
:EIG00166:       7.1088568    7.1157489    7.1233829    7.1759992    7.2386586
:EIG00171:       7.2500046    7.3003585    7.3365097    7.3474122    7.4083171
:EIG00176:       7.4235594    7.4527750    7.4770189    7.5243635    7.5524838
:EIG00181:       7.5946227    7.6058012    7.6164317    7.6518565    7.6884687
:EIG00186:       7.6984786    7.7642866    7.8465889    7.8590844    7.8710928
:EIG00191:       7.8914038    7.9182662    7.9729771    7.9850175    7.9880982
:EIG00196:       8.0085032    8.0200243    8.0793275    8.0802399    8.1243646
 
:EIG00201:       8.1370663
       ********************************************************

:KPT   :      NUMBER OF K-POINTS:   288

------- case.scfso --------
   0.0   0.0 angle (M,z), angle (M,x) deg
 
        SPIN-ORBIT EIGENVALUES:
     K=   0.06250   0.00000   0.06250            1
      MATRIX SIZE=  402   WEIGHT= 4.00
     EIGENVALUES ARE:
          -1.9964106   -1.9964106   -1.9812166   -1.9812166   -0.8117031
          -0.8117031   -0.7686858   -0.7686858   -0.6246328   -0.6246328
          -0.5584384   -0.5584384   -0.5552686   -0.5552686   -0.5469619
          -0.5469619    0.4093896    0.4093896    0.5437108    0.5437108
           0.6306866    0.6306866    0.6339163    0.6339163    0.6354095
           0.6354095    0.6372490    0.6372490    0.6406499    0.6406499
           0.6453639    0.6453639    0.6608039    0.6608039    0.6682694
           0.6682694    0.6714396    0.6714396    0.6732707    0.6732707

           0.6763717    0.6763717    0.6807172    0.6807172    0.6823542
           0.6823542    0.6867874    0.6867874    0.7126308    0.7126308
           0.7256268    0.7256268    0.8043951    0.8043952    0.8201131
           0.8201131    0.8472028    0.8472028    0.8794666    0.8794666
           0.8956700    0.8956700    0.9840212    0.9840213    1.0292478
           1.0292478    1.0745301    1.0745301    1.3749110    1.3749110
           1.3781102    1.3781102    1.4639863    1.4639863    1.4681787
           1.4681787    1.6289829    1.6289829    1.6806107    1.6806107

           1.7519605    1.7519605    1.8520034    1.8520034    1.9330167
           1.9330167    1.9509447    1.9509447    2.0544688    2.0544688
           2.1017332    2.1017332    2.1142833    2.1142833    2.1871923
           2.1871923    2.2380203    2.2380203    2.3351924    2.3351924
           2.3840705    2.3840705    2.4355499    2.4355499    2.4586669
           2.4586669    2.5342044    2.5342044    2.5664397    2.5664397
           2.6400656    2.6400656    2.6676636    2.6676636    2.7065705
           2.7065705    2.7948846    2.7948846    2.8551582    2.8551582

           2.9218367    2.9218367    2.9366020    2.9366020    3.0725396
           3.0725396    3.1360895    3.1360895    3.1560939    3.1560939
           3.2566913    3.2566913    3.3142583    3.3142583    3.3467363
           3.3467363    3.3584303    3.3584303    3.4120936    3.4120936
           3.4205011    3.4205011    3.4706403    3.4706403    3.5019451
           3.5019451    3.5647319    3.5647319    3.5837793    3.5837793
           3.6241303    3.6241303    3.6516515    3.6516515    3.6944635
           3.6944635    3.7200755    3.7200755    3.7502573    3.7502573

           3.7692054    3.7692054    3.8138460    3.8138460    3.8275537
           3.8275537    3.9105961    3.9105961    3.9197991    3.9197991
           3.9495156    3.9495156    4.0435526    4.0435526    4.0547793
           4.0547793    4.0870403    4.0870403    4.1009075    4.1009075
           4.1343862    4.1343862    4.1714978    4.1714978    4.1972861
           4.1972861    4.2162401    4.2162401    4.2296334    4.2296334
           4.2720792    4.2720792    4.3118556    4.3118556    4.3243425
           4.3243425    4.3373297    4.3373297    4.4151105    4.4151105

           4.4917819    4.4917819
       ********************************************************

------- case.scf2 --------
:GMA  : POTENTIAL AND CHARGE CUT-OFF  12.00 Ry**.5




:POS001: at.nr.  -1 position = 0.00000 0.89750 0.25000  multiplicity =  2

       lmmax 16
       lm=   0 0  1 0  2 0  2 2  3 0  3 2  4 0  4 2  4 4  5 0  5 2  5 4  6 0  6 2  6 4  6 6
:FER gutzwiller fermi energy   0.66036
:EORB         -0.186692231
:SUM sum of gutz band energies         -9.720937977

:CHA001: total charge inside sphere   1 =     9.509623
:PCS001: partial charges sphere =  1 s,p,d,f,px,py,pz,d-z2,d-x2y2,d-xy,d-xz,d-yz 
:QTL001: 1.9443 5.0223 0.5840 1.9587 1.6708 1.6717 1.6798 0.1095 0.1089 0.1254 0.1134 0.1268

                      vxx         vyy         vzz       up to r

:VZZ001:             4.64775     3.49603    -8.14378       2.300

:CHA  : total charge inside unit cell =      13.000000

------- case.scfc --------

        1.ATOM      Pr1                  14 CORE STATES
       CORE-FORCE in mRy/a.u. = |F|      Fx             Fy             Fz
:FCO001:   1.ATOM    592.130629532158      0.000000000000      0.000000000000    592.130629532158

:1S 001: 1S               -3066.951236431 Ry
:2S 001: 2S                -492.704031897 Ry
:2PP001: 2P*               -465.803159498 Ry
:2P 001: 2P                -430.405671178 Ry
:3S 001: 3S                -105.794619404 Ry
:3PP001: 3P*                -94.332432941 Ry
:3P 001: 3P                 -87.324638574 Ry
:3DD001: 3D*                -67.251544634 Ry
:3D 001: 3D                 -65.739994553 Ry
:4S 001: 4S                 -20.473615934 Ry
:4PP001: 4P*                -16.180476273 Ry
:4P 001: 4P                 -14.653200738 Ry
:4DD001: 4D*                 -7.586283426 Ry
:4D 001: 4D                  -7.316914597 Ry

------- case.scfm --------
:CINT001 Core Integral Atom   1   45.998489

       DENSITY AT NUCLEUS
        JATOM        VALENCE       SEMI-CORE          CORE           TOTAL
:RTO001:   1      649.914924        0.000000   656824.304060   657474.218984
     
       CHARGES OF NEW CHARGE DENSITY
:NTO   : INTERSTITIAL CHARGE =     6.980633
:NPC   : PW Pseudocharge     =    17.020586
:NTO001: CHARGE SPHERE  1    =    55.508112

:NEC01: NUCLEAR AND ELECTRONIC CHARGE    118.00000   117.99686
     
       CHARGES OF OLD CHARGE DENSITY
:OTO   : INTERSTITIAL CHARGE =     6.955648
:OPC   : PW Pseudocharge     =    17.015836
:OTO001: CHARGE SPHERE  1    =    55.522176

:NEC02: NUCLEAR AND ELECTRONIC CHARGE    118.00000   118.00000
     
       CONVERGENCE TEST
:DTO001: DIFFERENCE IN SPHERE  1 =  0.0230026

:DIS  :  CHARGE DISTANCE       ( 0.0230026 for atom    1 spin 1)      0.0230026
 PW Mixed is          491
 
******************************************************
* MULTISECANT MIXING VER9 RELEASE 10.4.0              *
* Standard Mode with controls                        *
* Fixed density scale                                *
* Regularization       1.000E-04                     *
* Trust Upper Limit    5.000E+00                     *
* Max Number of Memory Steps    8                    *
******************************************************
 
:INFO : Forcing a restart
:PWTMP   3.6775E+02  1.9467E+02  4.6968E+02
:PLANE:  PW TOTAL      4.7210 DISTAN   4.60E-03  9.74E-02 %
:CHARG:  CLM/ATOM   1381.9518 DISTAN   3.41E-02  2.47E-03 %
 
Step History
        DMIX         DMIXT        Red     Pred      Trust     Lambda    MagRel    MagAbs     Beta
  1   3.5000E-02   3.5000E-02 -1.00E+00  1.00E+00 -1.00E+01  1.00E+00  3.50E-02  3.50E-02  1.00E+00
:INFO :  Note, Pratt in use
:TRUST:  Step 2.25E-01  Charge 7.50E-02 (e) CTO  2.50E-01 (e) PW  3.50E-01 (e)
:DIRM :  MEMORY  0/ 8 SCALE   1.000
Performing Pseudo Compensation
Final Pseudo Compensation Rescaling     1.00000E+00
:MIX  :   PRATT  REGULARIZATION:  1.00E-04 GREED: 0.15000                  
     
       CHARGES OF MIXED CHARGE DENSITY
:CTO   : INTERSTITIAL CHARGE =     6.959868
:CPC   : PW Pseudocharge     =    17.021197
:CTO001: CHARGE SPHERE  1    =    55.520066

:NEC03: NUCLEAR AND ELECTRONIC CHARGE    118.00000   118.00000

PW CHANGE     H    K    L      Current       Change    Residue
:PTO001:      0    0    0  5.10578749E-02  2.040E-05  8.632E-05
:PTO003:      0    2    0  1.40283959E-02  9.863E-07 -1.407E-05
:PTO004:     -1    1    0  6.95667294E-02  1.901E-05  1.807E-05
:PTO005:      0    2   -1 -8.10685558E-02 -2.248E-05 -2.154E-05
:PTO006:      0    0   -2 -4.19962918E-02 -1.321E-05 -2.142E-05
:PTO007:     -1    1   -1 -8.81151800E-02 -2.886E-05 -4.527E-05
:PTO008:      0    2   -2 -1.45310797E-02 -4.493E-06 -2.879E-06
:PTO009:     -1    1   -2 -7.42426905E-02 -2.268E-05 -9.717E-06
:PTO011:     -1    3    0 -1.21576191E-02 -6.001E-06 -1.507E-05
:PTO012:     -1    3   -1 -5.46640813E-02 -1.883E-05 -8.433E-06
:PTO013:      0    4    0 -1.00111988E-02 -4.130E-06 -4.608E-06
:PTO014:      0    2   -3  2.28504311E-02  8.050E-06  1.886E-06

:ENE  : ********** TOTAL ENERGY IN Ry =       -36944.23861830

       TOTAL FORCE IN mRy/a.u. = |F|     Fx             Fy             Fz     with/without FOR in case.in2
:FOR001:   1.ATOM         16.331          0.000          0.000        -16.331 partial forces
       TOTAL FORCE WITH RESPECT TO GLOBAL CARTESIAN COORDINATES:
:FCA001:   1.ATOM                         0.000        -16.331          0.000 partial forces
       TOTAL FORCE WITH RESPECT TO THE GLOBAL COORDINATE SYSTEM:
:FGL001:   1.ATOM                 0.000000000   -16.331148952     0.000000000 partial forces

------- case.scf0 --------
 Flat Integration
 New Mode for Coulomb Integral
 Consistent 3/8+Simpson combinations
 Extension of core to zero
 LDM version in phi
 Fifth-order quadrature in outwin


            ---------
:ITE063: 63. ITERATION
            ---------

:NATO :    1 INDEPENDENT AND    2 TOTAL ATOMS IN UNITCELL
       SUBSTANCE: aU                                                          

       LATTICE                      = CXY 
:POT  : POTENTIAL OPTION EX_LDA EC_LDA VX_LDA VC_LDA
:LAT  : LATTICE CONSTANTS=  6.41698 13.02167 11.24187    1.571    1.571    1.571
:VOL  : UNIT CELL VOLUME =     469.68395
       MODE OF CALCULATION IS       = RELA
       NON-SPINPOLARIZED CALCULATION
:IFFT  : FFT-parameters:   54  100   90 Factor: 2.00


   CONVERGENCE PARAMETER FOR PSEUDOCHARGE: NCON=  9
   MAXIMAL VALUE OF RMT(JATOM)*ABSK(NKK) : RK  =27.59878


:VKCOUL :  VK-COUL convergence: 0.603E-07
       ATOMNUMBER=  1 Pr1        VCOUL-ZERO =  0.83712E-01
:EFG001:                        EFG         =    -8.02786   *10**21  V / m**2
                               V20  TOT/SRF=    -6.95233    -0.02989
                               V22  TOT/SRF=     0.55520     0.00266
                               V22M TOT/SRF=     0.00000     0.00000
                               V21  TOT/SRF=     0.00000     0.00000
                               V21M TOT/SRF=     0.00000     0.00000

              4.56914    0.00000    0.00000        4.56914    0.00000    0.00000
              0.00000    3.45873    0.00000        0.00000    3.45873    0.00000
              0.00000    0.00000   -8.02786        0.00000    0.00000   -8.02786

         MAIN DIRECTIONS OF THE EFG   1.0000  0.0000  0.0000
                                      0.0000  1.0000  0.0000
                                      0.0000  0.0000  1.0000
:ANG001:  ANGLE WITH OLD X-AXIS =         0.0

:ETA001:                         ASYMM. ETA =     0.13832


     HELLMANN-FEYNMAN-FORCE IN mRy/a.u. = |F|  Fx       Fy             Fz
:FHF001:   1.ATOM    605.025899387868      0.000000000000      0.000000000000   -605.025899387868

:FIT001: LUSE= 13 SIGMA OF V-XC FIT FOR ATOM  1  0.8744544E-05
:FIT001: LUSE= 13 SIGMA OF V-XC FIT FOR ATOM  1  0.8744544E-05
:DEN  : DENSITY INTEGRAL  =        -14150.49932172   (Ry)
       ELS_POTENTIAL_AT Z=0 and Z=0.5:   0.72727   0.72727
       ELS_POTENTIAL_AT Y=0 and Y=0.5:   0.06508   0.06508
:VZERO:v0,v0c,v0x   0.14638   0.72727  -0.58089 v5,v5c,v5x   0.14638   0.72727  -0.58089
:VZERY:v0,v0c,v0x  -0.71174   0.06508  -0.77682 v5,v5c,v5x  -0.71174   0.06508  -0.77682
:VZERX:v0,v0c,v0x  -1.12309  -0.37929  -0.74379 v5,v5c,v5x  -1.12309  -0.37929  -0.74379

------- case.scf1 --------
:LMAX-WF:   10   Non-Spherical LMAX:   4

          ATOMIC SPHERE DEPENDENT PARAMETERS FOR ATOM  Pr1       
:e__0001: OVERALL ENERGY PARAMETER IS    0.4416
          OVERALL BASIS SET ON ATOM IS LAPW
:E0_0001: E( 0)=    0.4416
             APW+lo
:E0_0001: E( 0)=   -2.0254   E(BOTTOM)=   -2.661   E(TOP)=   -1.390  4  5   178
             LOCAL ORBITAL
:E1_0001: E( 1)=    0.8416
             APW+lo
:E1_0001: E( 1)=   -0.5554   E(BOTTOM)=   -1.513   E(TOP)=    0.402  3  4   193
             LOCAL ORBITAL
:E3_0001: E( 3)=    0.6280   E(BOTTOM)=    0.420   E(TOP)=    0.836  0  1   123
             APW+lo
:E2_0001: E( 2)=    0.4416   E(BOTTOM)=    0.228   E(TOP)= -200.000  2 -1    92
             APW+lo

       K=   0.06250   0.00000   0.06250            1
:RKM  : MATRIX SIZE   441LOs:  40  RKM= 8.49  WEIGHT= 4.00  PGR:    
       EIGENVALUES ARE:
:EIG00001:      -1.9978047   -1.9826357   -0.7267100   -0.6458077   -0.6278583
:EIG00006:      -0.6219072   -0.6147807   -0.6144231    0.4093506    0.5437167
:EIG00011:       0.6346398    0.6365372    0.6366567    0.6404966    0.6439502
:EIG00016:       0.6550422    0.6596004    0.6601126    0.6630906    0.6658849
:EIG00021:       0.6702084    0.6728864    0.6742223    0.6784667    0.7106164
:EIG00026:       0.7249657    0.8051946    0.8189632    0.8464666    0.8786280
:EIG00031:       0.8951822    0.9837294    1.0284346    1.0738290    1.3758408
:EIG00036:       1.3763401    1.4639589    1.4678284    1.6292922    1.6810469
:EIG00041:       1.7518314    1.8532566    1.9346842    1.9492932    2.0537442
:EIG00046:       2.1017742    2.1158684    2.1868774    2.2370754    2.3352864
 
:EIG00051:       2.3843984    2.4378214    2.4568549    2.5337368    2.5647238
:EIG00056:       2.6399499    2.6680795    2.7053195    2.7944368    2.8551276
:EIG00061:       2.9221726    2.9318274    3.0724092    3.1360887    3.1558004
:EIG00066:       3.2565600    3.3142208    3.3462430    3.3585374    3.4120426
:EIG00071:       3.4202519    3.4706224    3.5018201    3.5653716    3.5828644
:EIG00076:       3.6237436    3.6500333    3.6943163    3.7198579    3.7497944
:EIG00081:       3.7690628    3.8139046    3.8272116    3.9104233    3.9195865
:EIG00086:       3.9495023    4.0437008    4.0546695    4.0870370    4.1007879
:EIG00091:       4.1344188    4.1714084    4.1973622    4.2162157    4.2295466
:EIG00096:       4.2720856    4.3121094    4.3241090    4.3371839    4.4151221
 
:EIG00101:       4.4918191    4.6149580    4.6289285    4.6982699    4.7271974
:EIG00106:       4.7276676    4.7835562    4.8030755    4.8380556    4.8693612
:EIG00111:       4.9539919    4.9967748    5.0008212    5.0592609    5.1151974
:EIG00116:       5.1512968    5.2065288    5.2189106    5.2621102    5.2983292
:EIG00121:       5.3083683    5.3806062    5.4381566    5.4517854    5.5052954
:EIG00126:       5.5926922    5.6288067    5.6497976    5.6839627    5.7297660
:EIG00131:       5.7402438    5.8068519    5.8237913    5.8319310    5.8610215
:EIG00136:       5.9431150    5.9672275    6.0259406    6.0289461    6.0627567
:EIG00141:       6.0837999    6.1064942    6.1476357    6.1742176    6.2395982
:EIG00146:       6.2416965    6.2502524    6.2797050    6.2895219    6.3671042
 
:EIG00151:       6.4172557    6.4271665    6.5065140    6.5229966    6.6013637
:EIG00156:       6.6840152    6.7773738    6.7891881    6.8181733    6.8801288
:EIG00161:       6.9504763    6.9632829    7.0096492    7.0363135    7.0459947
:EIG00166:       7.1088547    7.1157731    7.1233891    7.1760167    7.2386378
:EIG00171:       7.2499372    7.3003415    7.3364425    7.3473721    7.4082610
:EIG00176:       7.4235201    7.4525919    7.4769989    7.5242801    7.5524516
:EIG00181:       7.5946374    7.6057830    7.6165129    7.6517530    7.6885066
:EIG00186:       7.6985326    7.7641500    7.8465913    7.8590624    7.8710051
:EIG00191:       7.8914475    7.9183186    7.9730424    7.9850903    7.9881400
:EIG00196:       8.0085030    8.0200942    8.0793493    8.0803128    8.1243620
 
:EIG00201:       8.1370220
       ********************************************************

:KPT   :      NUMBER OF K-POINTS:   288

------- case.scfso --------
   0.0   0.0 angle (M,z), angle (M,x) deg
 
        SPIN-ORBIT EIGENVALUES:
     K=   0.06250   0.00000   0.06250            1
      MATRIX SIZE=  402   WEIGHT= 4.00
     EIGENVALUES ARE:
          -1.9978050   -1.9978050   -1.9826358   -1.9826358   -0.8127866
          -0.8127866   -0.7698540   -0.7698540   -0.6256087   -0.6256087
          -0.5594999   -0.5594999   -0.5563224   -0.5563224   -0.5480464
          -0.5480464    0.4093902    0.4093902    0.5435926    0.5435926
           0.6284380    0.6284380    0.6315164    0.6315164    0.6330624
           0.6330624    0.6348837    0.6348837    0.6382448    0.6382448
           0.6427838    0.6427838    0.6585235    0.6585236    0.6657904
           0.6657904    0.6688932    0.6688932    0.6708019    0.6708019

           0.6739133    0.6739133    0.6782645    0.6782645    0.6798377
           0.6798377    0.6842027    0.6842027    0.7115474    0.7115474
           0.7249710    0.7249710    0.8038441    0.8038442    0.8197340
           0.8197340    0.8468336    0.8468336    0.8790943    0.8790943
           0.8952505    0.8952505    0.9835678    0.9835679    1.0287170
           1.0287170    1.0739543    1.0739543    1.3745765    1.3745765
           1.3778233    1.3778233    1.4638535    1.4638535    1.4679585
           1.4679585    1.6288999    1.6288999    1.6805107    1.6805107

           1.7517730    1.7517730    1.8518265    1.8518265    1.9328274
           1.9328274    1.9507227    1.9507227    2.0541540    2.0541540
           2.1015424    2.1015424    2.1142052    2.1142052    2.1870046
           2.1870046    2.2378864    2.2378864    2.3349502    2.3349502
           2.3838856    2.3838856    2.4353612    2.4353612    2.4584970
           2.4584970    2.5339685    2.5339685    2.5661369    2.5661369
           2.6399277    2.6399277    2.6675851    2.6675851    2.7061334
           2.7061334    2.7947168    2.7947168    2.8548853    2.8548853

           2.9217546    2.9217546    2.9362842    2.9362842    3.0723018
           3.0723018    3.1361135    3.1361135    3.1560046    3.1560046
           3.2565376    3.2565376    3.3142133    3.3142133    3.3465105
           3.3465105    3.3581771    3.3581771    3.4121478    3.4121478
           3.4204790    3.4204790    3.4706088    3.4706088    3.5018819
           3.5018819    3.5646236    3.5646236    3.5837298    3.5837298
           3.6239662    3.6239662    3.6516398    3.6516398    3.6943979
           3.6943979    3.7200442    3.7200442    3.7501480    3.7501480

           3.7691924    3.7691924    3.8139245    3.8139245    3.8275380
           3.8275380    3.9104398    3.9104398    3.9197871    3.9197871
           3.9496136    3.9496136    4.0436883    4.0436883    4.0548079
           4.0548079    4.0870558    4.0870558    4.1008497    4.1008497
           4.1344459    4.1344459    4.1714595    4.1714595    4.1973703
           4.1973703    4.2161062    4.2161062    4.2294880    4.2294880
           4.2721347    4.2721347    4.3118995    4.3118995    4.3243506
           4.3243506    4.3373460    4.3373460    4.4151921    4.4151921

           4.4917015    4.4917015
       ********************************************************

------- case.scf2 --------
:GMA  : POTENTIAL AND CHARGE CUT-OFF  12.00 Ry**.5




:POS001: at.nr.  -1 position = 0.00000 0.89750 0.25000  multiplicity =  2

       lmmax 16
       lm=   0 0  1 0  2 0  2 2  3 0  3 2  4 0  4 2  4 4  5 0  5 2  5 4  6 0  6 2  6 4  6 6
:FER gutzwiller fermi energy   0.66004
:EORB         -0.196001481
:SUM sum of gutz band energies         -9.741367337

:CHA001: total charge inside sphere   1 =     9.513261
:PCS001: partial charges sphere =  1 s,p,d,f,px,py,pz,d-z2,d-x2y2,d-xy,d-xz,d-yz 
:QTL001: 1.9444 5.0232 0.5841 1.9612 1.6711 1.6720 1.6801 0.1095 0.1091 0.1254 0.1134 0.1268

                      vxx         vyy         vzz       up to r

:VZZ001:             4.63440     3.46685    -8.10125       2.300

:CHA  : total charge inside unit cell =      13.000000

------- case.scfc --------

        1.ATOM      Pr1                  14 CORE STATES
       CORE-FORCE in mRy/a.u. = |F|      Fx             Fy             Fz
:FCO001:   1.ATOM    587.985550325467      0.000000000000      0.000000000000    587.985550325467

:1S 001: 1S               -3066.955949961 Ry
:2S 001: 2S                -492.708774304 Ry
:2PP001: 2P*               -465.807895326 Ry
:2P 001: 2P                -430.410409328 Ry
:3S 001: 3S                -105.799299636 Ry
:3PP001: 3P*                -94.337120719 Ry
:3P 001: 3P                 -87.329310420 Ry
:3DD001: 3D*                -67.256243457 Ry
:3D 001: 3D                 -65.744689695 Ry
:4S 001: 4S                 -20.477367932 Ry
:4PP001: 4P*                -16.184167553 Ry
:4P 001: 4P                 -14.656798888 Ry
:4DD001: 4D*                 -7.589713930 Ry
:4D 001: 4D                  -7.320313085 Ry

------- case.scfm --------
:CINT001 Core Integral Atom   1   45.998491

       DENSITY AT NUCLEUS
        JATOM        VALENCE       SEMI-CORE          CORE           TOTAL
:RTO001:   1      650.118725        0.000000   656824.493283   657474.612009
     
       CHARGES OF NEW CHARGE DENSITY
:NTO   : INTERSTITIAL CHARGE =     6.973579
:NPC   : PW Pseudocharge     =    17.020232
:NTO001: CHARGE SPHERE  1    =    55.511752

:NEC01: NUCLEAR AND ELECTRONIC CHARGE    118.00000   117.99708
     
       CHARGES OF OLD CHARGE DENSITY
:OTO   : INTERSTITIAL CHARGE =     6.959868
:OPC   : PW Pseudocharge     =    17.021197
:OTO001: CHARGE SPHERE  1    =    55.520066

:NEC02: NUCLEAR AND ELECTRONIC CHARGE    118.00000   118.00000
     
       CONVERGENCE TEST
:DTO001: DIFFERENCE IN SPHERE  1 =  0.0141323

:DIS  :  CHARGE DISTANCE       ( 0.0141323 for atom    1 spin 1)      0.0141323
 PW Mixed is          491
 
******************************************************
* MULTISECANT MIXING VER9 RELEASE 10.4.0              *
* Standard Mode with controls                        *
* Fixed density scale                                *
* Restart from converged density                     *
* Regularization       1.000E-04                     *
* Trust Upper Limit    5.000E+00                     *
* Max Number of Memory Steps    8                    *
******************************************************
 
:INFO : Forcing a restart
:PWTMP   3.6775E+02  1.9467E+02  4.6968E+02
:PLANE:  PW TOTAL      4.7226 DISTAN   2.60E-03  5.50E-02 %
:CHARG:  CLM/ATOM   1381.9517 DISTAN   2.13E-02  1.54E-03 %
 
Step History
        DMIX         DMIXT        Red     Pred      Trust     Lambda    MagRel    MagAbs     Beta
  1   3.5000E-02   3.5000E-02 -1.00E+00  1.00E+00 -1.00E+01  1.00E+00  3.50E-02  3.50E-02  1.00E+00
  2   1.5000E-01   1.5000E-01 -1.00E+00  1.00E+00 -1.00E+01  1.00E+00  1.50E-01  5.16E-03  1.00E+00
:JACOBIANS    6.422E-03   1.603E-01
  
:NORMS:  1/Froebius, Min, Max, Used   0.1302E+00  0.1302E+00  0.3267E+00  0.1302E+00
:INFO :  Number of Memory Steps    1 Skipping    0
:PREDicted Charge, CTotal, PW Trust    4.507E-03   9.014E-03   8.483E-03
:PREDicted DMix, Beta, BLim   5.0000E-02  2.1365E+00  2.1161E+00

Eigenvalues, unscaled except for SY+YY
   #     SY Real        SY Imag          SS             YY         SY+YY Real      SY+YY Imag
   1   3.267049E-01   0.000000E+00   1.302165E-01   1.000000E+00   1.326705E+00   0.000000E+00
 
:BLIM :  VZERO Control Off
:TRUST:  Step 3.00E+00  Charge 7.50E-02 (e) CTO  2.50E-01 (e) PW  3.50E-01 (e)
:DIRM :  MEMORY  1/8  SCALE   1.000 RED  0.62 PRED  1.00 NEXT  0.62 
:TRAVE:  Charge 2.52E-03 (e) CTO  5.05E-03 (e) PW  4.59E-03 (e)
:DIRP :  |MSR1|= 1.829E-03 |PRATT|= 2.597E-03 ANGLE=  37.7 DEGREES
:DIRQ :  |MSR1|= 6.237E-03 |PRATT|= 2.131E-02 ANGLE=   7.5 DEGREES
:DIRT :  |MSR1|= 6.499E-03 |PRATT|= 2.147E-02 ANGLE=  13.8 DEGREES
:MIX  :   MSR1   REGULARIZATION:  1.00E-04 GREED: 0.07125  Newton 1.00  0.3027                
     
       CHARGES OF MIXED CHARGE DENSITY
:CTO   : INTERSTITIAL CHARGE =     6.964916
:CPC   : PW Pseudocharge     =    17.027221
:CTO001: CHARGE SPHERE  1    =    55.517542

:NEC03: NUCLEAR AND ELECTRONIC CHARGE    118.00000   118.00000

PW CHANGE     H    K    L      Current       Change    Residue
:PTO001:      0    0    0  5.10814497E-02  2.357E-05  4.850E-05
:PTO003:      0    2    0  1.40296279E-02  1.232E-06 -6.755E-06
:PTO004:     -1    1    0  6.95880629E-02  2.133E-05  7.792E-06
:PTO005:      0    2   -1 -8.10937544E-02 -2.520E-05 -9.190E-06
:PTO006:      0    0   -2 -4.20111686E-02 -1.488E-05 -1.047E-05
:PTO007:     -1    1   -1 -8.81471102E-02 -3.193E-05 -1.840E-05
:PTO008:      0    2   -2 -1.45362739E-02 -5.194E-06 -2.112E-06
:PTO009:     -1    1   -2 -7.42669393E-02 -2.425E-05  4.833E-06
:PTO011:     -1    3    0 -1.21644694E-02 -6.850E-06 -8.214E-06
:PTO012:     -1    3   -1 -5.46856622E-02 -2.158E-05 -5.678E-06
:PTO013:      0    4    0 -1.00160650E-02 -4.866E-06 -3.583E-06
:PTO014:      0    2   -3  2.28596125E-02  9.181E-06  1.214E-06

:ENE  : ********** TOTAL ENERGY IN Ry =       -36944.23883381

       TOTAL FORCE IN mRy/a.u. = |F|     Fx             Fy             Fz     with/without FOR in case.in2
:FOR001:   1.ATOM         17.040          0.000          0.000        -17.040 partial forces
       TOTAL FORCE WITH RESPECT TO GLOBAL CARTESIAN COORDINATES:
:FCA001:   1.ATOM                         0.000        -17.040          0.000 partial forces
       TOTAL FORCE WITH RESPECT TO THE GLOBAL COORDINATE SYSTEM:
:FGL001:   1.ATOM                 0.000000000   -17.040349062     0.000000000 partial forces

------- case.scf0 --------
 Flat Integration
 New Mode for Coulomb Integral
 Consistent 3/8+Simpson combinations
 Extension of core to zero
 LDM version in phi
 Fifth-order quadrature in outwin


            ---------
:ITE064: 64. ITERATION
            ---------

:NATO :    1 INDEPENDENT AND    2 TOTAL ATOMS IN UNITCELL
       SUBSTANCE: aU                                                          

       LATTICE                      = CXY 
:POT  : POTENTIAL OPTION EX_LDA EC_LDA VX_LDA VC_LDA
:LAT  : LATTICE CONSTANTS=  6.41698 13.02167 11.24187    1.571    1.571    1.571
:VOL  : UNIT CELL VOLUME =     469.68395
       MODE OF CALCULATION IS       = RELA
       NON-SPINPOLARIZED CALCULATION
:IFFT  : FFT-parameters:   54  100   90 Factor: 2.00


   CONVERGENCE PARAMETER FOR PSEUDOCHARGE: NCON=  9
   MAXIMAL VALUE OF RMT(JATOM)*ABSK(NKK) : RK  =27.59878


:VKCOUL :  VK-COUL convergence: 0.606E-07
       ATOMNUMBER=  1 Pr1        VCOUL-ZERO =  0.83621E-01
:EFG001:                        EFG         =    -8.06021   *10**21  V / m**2
                               V20  TOT/SRF=    -6.98035    -0.03004
                               V22  TOT/SRF=     0.56273     0.00267
                               V22M TOT/SRF=     0.00000     0.00000
                               V21  TOT/SRF=     0.00000     0.00000
                               V21M TOT/SRF=     0.00000     0.00000

              4.59283    0.00000    0.00000        4.59283    0.00000    0.00000
              0.00000    3.46738    0.00000        0.00000    3.46738    0.00000
              0.00000    0.00000   -8.06021        0.00000    0.00000   -8.06021

         MAIN DIRECTIONS OF THE EFG   1.0000  0.0000  0.0000
                                      0.0000  1.0000  0.0000
                                      0.0000  0.0000  1.0000
:ANG001:  ANGLE WITH OLD X-AXIS =         0.0

:ETA001:                         ASYMM. ETA =     0.13963


     HELLMANN-FEYNMAN-FORCE IN mRy/a.u. = |F|  Fx       Fy             Fz
:FHF001:   1.ATOM    598.454425581899      0.000000000000      0.000000000000   -598.454425581899

:FIT001: LUSE= 13 SIGMA OF V-XC FIT FOR ATOM  1  0.8653413E-05
:FIT001: LUSE= 13 SIGMA OF V-XC FIT FOR ATOM  1  0.8653413E-05
:DEN  : DENSITY INTEGRAL  =        -14150.01452138   (Ry)
       ELS_POTENTIAL_AT Z=0 and Z=0.5:   0.72770   0.72770
       ELS_POTENTIAL_AT Y=0 and Y=0.5:   0.06493   0.06493
:VZERO:v0,v0c,v0x   0.14666   0.72770  -0.58104 v5,v5c,v5x   0.14666   0.72770  -0.58104
:VZERY:v0,v0c,v0x  -0.71199   0.06493  -0.77692 v5,v5c,v5x  -0.71199   0.06493  -0.77692
:VZERX:v0,v0c,v0x  -1.12342  -0.37947  -0.74395 v5,v5c,v5x  -1.12342  -0.37947  -0.74395

------- case.scf1 --------
:LMAX-WF:   10   Non-Spherical LMAX:   4

          ATOMIC SPHERE DEPENDENT PARAMETERS FOR ATOM  Pr1       
:e__0001: OVERALL ENERGY PARAMETER IS    0.4416
          OVERALL BASIS SET ON ATOM IS LAPW
:E0_0001: E( 0)=    0.4416
             APW+lo
:E0_0001: E( 0)=   -2.0272   E(BOTTOM)=   -2.662   E(TOP)=   -1.392  4  5   178
             LOCAL ORBITAL
:E1_0001: E( 1)=    0.8416
             APW+lo
:E1_0001: E( 1)=   -0.5570   E(BOTTOM)=   -1.514   E(TOP)=    0.400  3  4   192
             LOCAL ORBITAL
:E3_0001: E( 3)=    0.6249   E(BOTTOM)=    0.418   E(TOP)=    0.832  0  1   115
             APW+lo
:E2_0001: E( 2)=    0.4416   E(BOTTOM)=    0.227   E(TOP)= -200.000  2 -1    89
             APW+lo

       K=   0.06250   0.00000   0.06250            1
:RKM  : MATRIX SIZE   441LOs:  40  RKM= 8.49  WEIGHT= 4.00  PGR:    
       EIGENVALUES ARE:
:EIG00001:      -1.9994711   -1.9843315   -0.7278530   -0.6470437   -0.6291263
:EIG00006:      -0.6232489   -0.6161179   -0.6157770    0.4093465    0.5435707
:EIG00011:       0.6321314    0.6337252    0.6339176    0.6377395    0.6411888
:EIG00016:       0.6520140    0.6565508    0.6570849    0.6600431    0.6629173
:EIG00021:       0.6671129    0.6699410    0.6712048    0.6753570    0.7094724
:EIG00026:       0.7242608    0.8045746    0.8185072    0.8460264    0.8781818
:EIG00031:       0.8946806    0.9831894    1.0278001    1.0731407    1.3753258
:EIG00036:       1.3761126    1.4638022    1.4675635    1.6291928    1.6809266
:EIG00041:       1.7516059    1.8530467    1.9344625    1.9490171    2.0533640
:EIG00046:       2.1015421    2.1157795    2.1866453    2.2369175    2.3349941
 
:EIG00051:       2.3841715    2.4375900    2.4566534    2.5334468    2.5643559
:EIG00056:       2.6397859    2.6679862    2.7047879    2.7942352    2.8548027
:EIG00061:       2.9220808    2.9314330    3.0721225    3.1361134    3.1556896
:EIG00066:       3.2563754    3.3141646    3.3459702    3.3582312    3.4121051
:EIG00071:       3.4202210    3.4705807    3.5017409    3.5652360    3.5828073
:EIG00076:       3.6235442    3.6500160    3.6942350    3.7198199    3.7496599
:EIG00081:       3.7690438    3.8139929    3.8271899    3.9102320    3.9195728
:EIG00086:       3.9496137    4.0438581    4.0546997    4.0870521    4.1007145
:EIG00091:       4.1344863    4.1713598    4.1974589    4.2160523    4.2293706
:EIG00096:       4.2721484    4.3121599    4.3241105    4.3372023    4.4152143
 
:EIG00101:       4.4917194    4.6149966    4.6288087    4.6982363    4.7272859
:EIG00106:       4.7277306    4.7836141    4.8030698    4.8380461    4.8694555
:EIG00111:       4.9541114    4.9969207    5.0006136    5.0591402    5.1152325
:EIG00116:       5.1511589    5.2066288    5.2188499    5.2619957    5.2981396
:EIG00121:       5.3081871    5.3806437    5.4380353    5.4518564    5.5052207
:EIG00126:       5.5926994    5.6286647    5.6497368    5.6839324    5.7297809
:EIG00131:       5.7401481    5.8068579    5.8237805    5.8319269    5.8609687
:EIG00136:       5.9431351    5.9672710    6.0260168    6.0290154    6.0627347
:EIG00141:       6.0837489    6.1063368    6.1476387    6.1743599    6.2397186
:EIG00146:       6.2417594    6.2503050    6.2794611    6.2895105    6.3672074
 
:EIG00151:       6.4173950    6.4271132    6.5066415    6.5229298    6.6012885
:EIG00156:       6.6840369    6.7773950    6.7892388    6.8182428    6.8800828
:EIG00161:       6.9505571    6.9631464    7.0096692    7.0362081    7.0459236
:EIG00166:       7.1088462    7.1157972    7.1233914    7.1760331    7.2386085
:EIG00171:       7.2498524    7.3003158    7.3363571    7.3473184    7.4081889
:EIG00176:       7.4234670    7.4523686    7.4769699    7.5241756    7.5524086
:EIG00181:       7.5946483    7.6057576    7.6166048    7.6516250    7.6885471
:EIG00186:       7.6985922    7.7639829    7.8465893    7.8590317    7.8708961
:EIG00191:       7.8914950    7.9183764    7.9731155    7.9851711    7.9881860
:EIG00196:       8.0084976    8.0201724    8.0793707    8.0803947    8.1243549
 
:EIG00201:       8.1369638
       ********************************************************

:KPT   :      NUMBER OF K-POINTS:   288

------- case.scfso --------
   0.0   0.0 angle (M,z), angle (M,x) deg
 
        SPIN-ORBIT EIGENVALUES:
     K=   0.06250   0.00000   0.06250            1
      MATRIX SIZE=  402   WEIGHT= 4.00
     EIGENVALUES ARE:
          -1.9994714   -1.9994714   -1.9843316   -1.9843316   -0.8140817
          -0.8140817   -0.7712504   -0.7712504   -0.6267758   -0.6267758
          -0.5607694   -0.5607694   -0.5575828   -0.5575828   -0.5493418
          -0.5493418    0.4093860    0.4093860    0.5434436    0.5434437
           0.6257411    0.6257411    0.6286600    0.6286600    0.6302602
           0.6302602    0.6320617    0.6320617    0.6353787    0.6353787
           0.6397147    0.6397147    0.6558004    0.6558005    0.6628372
           0.6628372    0.6658619    0.6658619    0.6678602    0.6678603

           0.6709767    0.6709767    0.6753293    0.6753293    0.6768437
           0.6768437    0.6811311    0.6811311    0.7103059    0.7103059
           0.7242215    0.7242215    0.8031983    0.8031983    0.8192817
           0.8192817    0.8463916    0.8463917    0.8786486    0.8786486
           0.8947488    0.8947488    0.9830270    0.9830270    1.0280837
           1.0280837    1.0732669    1.0732669    1.3741658    1.3741658
           1.3774915    1.3774915    1.4636939    1.4636939    1.4676961
           1.4676961    1.6287994    1.6287994    1.6803903    1.6803903

           1.7515473    1.7515473    1.8516143    1.8516143    1.9325981
           1.9325981    1.9504566    1.9504566    2.0537752    2.0537752
           2.1013125    2.1013125    2.1141092    2.1141092    2.1867769
           2.1867769    2.2377238    2.2377238    2.3346576    2.3346576
           2.3836603    2.3836603    2.4351350    2.4351350    2.4582909
           2.4582909    2.5336840    2.5336840    2.5657712    2.5657712
           2.6397592    2.6397592    2.6674869    2.6674869    2.7056104
           2.7056104    2.7945129    2.7945129    2.8545580    2.8545580

           2.9216524    2.9216524    2.9359035    2.9359035    3.0720156
           3.0720156    3.1361380    3.1361380    3.1558938    3.1558938
           3.2563525    3.2563525    3.3141559    3.3141559    3.3462393
           3.3462393    3.3578735    3.3578735    3.4122090    3.4122090
           3.4204483    3.4204483    3.4705675    3.4705675    3.5018027
           3.5018027    3.5644922    3.5644922    3.5836671    3.5836671
           3.6237672    3.6237672    3.6516226    3.6516226    3.6943166
           3.6943166    3.7200045    3.7200045    3.7500149    3.7500149

           3.7691737    3.7691737    3.8140126    3.8140126    3.8275158
           3.8275158    3.9102522    3.9102522    3.9197699    3.9197699
           3.9497249    3.9497249    4.0438455    4.0438455    4.0548380
           4.0548380    4.0870708    4.0870708    4.1007762    4.1007762
           4.1345132    4.1345132    4.1714107    4.1714107    4.1974664
           4.1974664    4.2159440    4.2159440    4.2293125    4.2293125
           4.2721972    4.2721972    4.3119477    4.3119477    4.3243554
           4.3243554    4.3373622    4.3373622    4.4152841    4.4152841

           4.4916022    4.4916022
       ********************************************************

------- case.scf2 --------
:GMA  : POTENTIAL AND CHARGE CUT-OFF  12.00 Ry**.5




:POS001: at.nr.  -1 position = 0.00000 0.89750 0.25000  multiplicity =  2

       lmmax 16
       lm=   0 0  1 0  2 0  2 2  3 0  3 2  4 0  4 2  4 4  5 0  5 2  5 4  6 0  6 2  6 4  6 6
:FER gutzwiller fermi energy   0.65961
:EORB         -0.206584208
:SUM sum of gutz band energies         -9.766067393

:CHA001: total charge inside sphere   1 =     9.517789
:PCS001: partial charges sphere =  1 s,p,d,f,px,py,pz,d-z2,d-x2y2,d-xy,d-xz,d-yz 
:QTL001: 1.9446 5.0243 0.5840 1.9647 1.6715 1.6724 1.6804 0.1093 0.1092 0.1254 0.1133 0.1267

                      vxx         vyy         vzz       up to r

:VZZ001:             4.61601     3.42894    -8.04495       2.300

:CHA  : total charge inside unit cell =      13.000000

------- case.scfc --------

        1.ATOM      Pr1                  14 CORE STATES
       CORE-FORCE in mRy/a.u. = |F|      Fx             Fy             Fz
:FCO001:   1.ATOM    580.773042294003      0.000000000000      0.000000000000    580.773042294003

:1S 001: 1S               -3066.961155576 Ry
:2S 001: 2S                -492.714091009 Ry
:2PP001: 2P*               -465.813187172 Ry
:2P 001: 2P                -430.415710317 Ry
:3S 001: 3S                -105.804691854 Ry
:3PP001: 3P*                -94.342513714 Ry
:3P 001: 3P                 -87.334692760 Ry
:3DD001: 3D*                -67.261635973 Ry
:3D 001: 3D                 -65.750080742 Ry
:4S 001: 4S                 -20.481796357 Ry
:4PP001: 4P*                -16.188525761 Ry
:4P 001: 4P                 -14.661051822 Ry
:4DD001: 4D*                 -7.593772306 Ry
:4D 001: 4D                  -7.324334899 Ry

------- case.scfm --------
:CINT001 Core Integral Atom   1   45.998494

       DENSITY AT NUCLEUS
        JATOM        VALENCE       SEMI-CORE          CORE           TOTAL
:RTO001:   1      650.361362        0.000000   656824.677541   657475.038903
     
       CHARGES OF NEW CHARGE DENSITY
:NTO   : INTERSTITIAL CHARGE =     6.964320
:NPC   : PW Pseudocharge     =    17.019493
:NTO001: CHARGE SPHERE  1    =    55.516283

:NEC01: NUCLEAR AND ELECTRONIC CHARGE    118.00000   117.99689
     
       CHARGES OF OLD CHARGE DENSITY
:OTO   : INTERSTITIAL CHARGE =     6.964916
:OPC   : PW Pseudocharge     =    17.027221
:OTO001: CHARGE SPHERE  1    =    55.517542

:NEC02: NUCLEAR AND ELECTRONIC CHARGE    118.00000   118.00000
     
       CONVERGENCE TEST
:DTO001: DIFFERENCE IN SPHERE  1 =  0.0079464

:DIS  :  CHARGE DISTANCE       ( 0.0079464 for atom    1 spin 1)      0.0079464
 PW Mixed is          491
 
******************************************************
* MULTISECANT MIXING VER9 RELEASE 10.4.0              *
* Standard Mode with controls                        *
* Fixed density scale                                *
* Regularization       1.000E-04                     *
* Trust Upper Limit    5.000E+00                     *
* Max Number of Memory Steps    8                    *
******************************************************
 
:PWTMP   3.6775E+02  1.9467E+02  4.6968E+02
:PLANE:  PW TOTAL      4.7244 DISTAN   7.66E-04  1.62E-02 %
:CHARG:  CLM/ATOM   1381.9518 DISTAN   1.19E-02  8.58E-04 %
 
Step History
        DMIX         DMIXT        Red     Pred      Trust     Lambda    MagRel    MagAbs     Beta
  1   3.5000E-02   3.5000E-02 -1.00E+00  1.00E+00 -1.00E+01  1.00E+00  3.50E-02  3.50E-02  1.00E+00
  2   1.5000E-01   1.5000E-01  6.24E-01  1.00E+00 -1.00E+01  1.00E+00  1.50E-01  5.16E-03  1.00E+00
  3   7.1250E-02   7.1250E-02 -1.00E+00  6.18E-01  3.00E+00  1.00E+00  3.03E-01  6.50E-03  1.00E+00
:JACOBIANS    1.812E-02   4.740E-01
  
:NORMS:  1/Froebius, Min, Max, Used   0.3621E+00  0.3620E+00  0.4270E+00  0.3661E+00
:INFO :  Number of Memory Steps    2 Skipping    0
:INFO :  SLambda=    0.1897379104  Max    0.1897379104
:PREDicted Charge, CTotal, PW Trust    2.312E-03   4.625E-03   2.964E-03
:PREDicted DMix, Beta, BLim   4.0736E-01  1.1136E+00  9.6839E-01

Eigenvalues, unscaled except for SY+YY
   #     SY Real        SY Imag          SS             YY         SY+YY Real      SY+YY Imag
   1   6.416145E-01   0.000000E+00   2.619608E-01   1.999268E+00   2.121016E+00   0.000000E+00
   2   4.459813E-04   0.000000E+00   2.459494E-04   7.321204E-04   8.067755E-04   0.000000E+00
 
:INFO :  Singular value  2.121E+00 Weight  1.000E+00 Projection -5.306E-05
:INFO :  Singular value  8.068E-04 Weight  9.421E-01 Projection  3.934E-01
:RANK :  ACTIVE   1.94/2  =  97.11 % ; YY RANK   1.93/2  =  96.53 %
 
:BLIM :  VZERO Control Off
:TRUST:  Step 4.00E+00  Charge 7.50E-02 (e) CTO  2.50E-01 (e) PW  3.50E-01 (e)
:DIRM :  MEMORY  2/8  SCALE   1.000 RED  0.55 PRED  0.62 NEXT  0.33 
:TRAVE:  Charge 1.31E-03 (e) CTO  2.63E-03 (e) PW  2.68E-03 (e)
:DIRP :  |MSR1|= 5.201E-04 |PRATT|= 7.659E-04 ANGLE=  59.8 DEGREES
:DIRQ :  |MSR1|= 6.425E-03 |PRATT|= 1.185E-02 ANGLE=  18.4 DEGREES
:DIRT :  |MSR1|= 6.446E-03 |PRATT|= 1.188E-02 ANGLE=  18.8 DEGREES
:MIX  :   MSD1   REGULARIZATION:  2.00E-04 GREED: 0.17813  Newton 1.00  0.5426                
     
       CHARGES OF MIXED CHARGE DENSITY
:CTO   : INTERSTITIAL CHARGE =     6.964714
:CPC   : PW Pseudocharge     =    17.025564
:CTO001: CHARGE SPHERE  1    =    55.517643

:NEC03: NUCLEAR AND ELECTRONIC CHARGE    118.00000   118.00000

PW CHANGE     H    K    L      Current       Change    Residue
:PTO001:      0    0    0  5.10774933E-02 -3.956E-06  5.102E-06
:PTO003:      0    2    0  1.40315631E-02  1.935E-06  3.005E-06
:PTO004:     -1    1    0  6.95834657E-02 -4.597E-06  9.910E-07
:PTO005:      0    2   -1 -8.10886675E-02  5.087E-06 -1.274E-06
:PTO006:      0    0   -2 -4.20079684E-02  3.200E-06 -8.196E-07
:PTO007:     -1    1   -1 -8.81355407E-02  1.157E-05  5.712E-06
:PTO008:      0    2   -2 -1.45365187E-02 -2.448E-07 -2.407E-06
:PTO009:     -1    1   -2 -7.42528186E-02  1.412E-05  1.380E-05
:PTO011:     -1    3    0 -1.21630224E-02  1.447E-06 -9.508E-07
:PTO012:     -1    3   -1 -5.46850094E-02  6.528E-07 -7.552E-06
:PTO013:      0    4    0 -1.00169239E-02 -8.588E-07 -3.307E-06
:PTO014:      0    2   -3  2.28592734E-02 -3.391E-07  2.885E-06

:ENE  : ********** TOTAL ENERGY IN Ry =       -36944.23891187

       TOTAL FORCE IN mRy/a.u. = |F|     Fx             Fy             Fz     with/without FOR in case.in2
:FOR001:   1.ATOM         17.681          0.000          0.000        -17.681 partial forces
       TOTAL FORCE WITH RESPECT TO GLOBAL CARTESIAN COORDINATES:
:FCA001:   1.ATOM                         0.000        -17.681          0.000 partial forces
       TOTAL FORCE WITH RESPECT TO THE GLOBAL COORDINATE SYSTEM:
:FGL001:   1.ATOM                 0.000000000   -17.681383288     0.000000000 partial forces

------- case.scf0 --------
 Flat Integration
 New Mode for Coulomb Integral
 Consistent 3/8+Simpson combinations
 Extension of core to zero
 LDM version in phi
 Fifth-order quadrature in outwin


            ---------
:ITE065: 65. ITERATION
            ---------

:NATO :    1 INDEPENDENT AND    2 TOTAL ATOMS IN UNITCELL
       SUBSTANCE: aU                                                          

       LATTICE                      = CXY 
:POT  : POTENTIAL OPTION EX_LDA EC_LDA VX_LDA VC_LDA
:LAT  : LATTICE CONSTANTS=  6.41698 13.02167 11.24187    1.571    1.571    1.571
:VOL  : UNIT CELL VOLUME =     469.68395
       MODE OF CALCULATION IS       = RELA
       NON-SPINPOLARIZED CALCULATION
:IFFT  : FFT-parameters:   54  100   90 Factor: 2.00


   CONVERGENCE PARAMETER FOR PSEUDOCHARGE: NCON=  9
   MAXIMAL VALUE OF RMT(JATOM)*ABSK(NKK) : RK  =27.59878


:VKCOUL :  VK-COUL convergence: 0.608E-07
       ATOMNUMBER=  1 Pr1        VCOUL-ZERO =  0.83610E-01
:EFG001:                        EFG         =    -8.05822   *10**21  V / m**2
                               V20  TOT/SRF=    -6.97862    -0.02986
                               V22  TOT/SRF=     0.58224     0.00266
                               V22M TOT/SRF=     0.00000     0.00000
                               V21  TOT/SRF=     0.00000     0.00000
                               V21M TOT/SRF=     0.00000     0.00000

              4.61135    0.00000    0.00000        4.61135    0.00000    0.00000
              0.00000    3.44687    0.00000        0.00000    3.44687    0.00000
              0.00000    0.00000   -8.05822        0.00000    0.00000   -8.05822

         MAIN DIRECTIONS OF THE EFG   1.0000  0.0000  0.0000
                                      0.0000  1.0000  0.0000
                                      0.0000  0.0000  1.0000
:ANG001:  ANGLE WITH OLD X-AXIS =         0.0

:ETA001:                         ASYMM. ETA =     0.14451


     HELLMANN-FEYNMAN-FORCE IN mRy/a.u. = |F|  Fx       Fy             Fz
:FHF001:   1.ATOM    580.628370143365      0.000000000000      0.000000000000   -580.628370143365

:FIT001: LUSE= 13 SIGMA OF V-XC FIT FOR ATOM  1  0.8586118E-05
:FIT001: LUSE= 13 SIGMA OF V-XC FIT FOR ATOM  1  0.8586118E-05
:DEN  : DENSITY INTEGRAL  =        -14150.18217281   (Ry)
       ELS_POTENTIAL_AT Z=0 and Z=0.5:   0.72766   0.72766
       ELS_POTENTIAL_AT Y=0 and Y=0.5:   0.06497   0.06497
:VZERO:v0,v0c,v0x   0.14662   0.72766  -0.58104 v5,v5c,v5x   0.14662   0.72766  -0.58104
:VZERY:v0,v0c,v0x  -0.71195   0.06497  -0.77692 v5,v5c,v5x  -0.71195   0.06497  -0.77692
:VZERX:v0,v0c,v0x  -1.12337  -0.37943  -0.74395 v5,v5c,v5x  -1.12337  -0.37943  -0.74395

------- case.scf1 --------
:LMAX-WF:   10   Non-Spherical LMAX:   4

          ATOMIC SPHERE DEPENDENT PARAMETERS FOR ATOM  Pr1       
:e__0001: OVERALL ENERGY PARAMETER IS    0.4416
          OVERALL BASIS SET ON ATOM IS LAPW
:E0_0001: E( 0)=    0.4416
             APW+lo
:E0_0001: E( 0)=   -2.0270   E(BOTTOM)=   -2.662   E(TOP)=   -1.392  4  5   178
             LOCAL ORBITAL
:E1_0001: E( 1)=    0.8416
             APW+lo
:E1_0001: E( 1)=   -0.5568   E(BOTTOM)=   -1.514   E(TOP)=    0.400  3  4   196
             LOCAL ORBITAL
:E3_0001: E( 3)=    0.6253   E(BOTTOM)=    0.418   E(TOP)=    0.833  0  1   123
             APW+lo
:E2_0001: E( 2)=    0.4416   E(BOTTOM)=    0.227   E(TOP)= -200.000  2 -1    88
             APW+lo

       K=   0.06250   0.00000   0.06250            1
:RKM  : MATRIX SIZE   441LOs:  40  RKM= 8.49  WEIGHT= 4.00  PGR:    
       EIGENVALUES ARE:
:EIG00001:      -1.9993132   -1.9841711   -0.7277292   -0.6469412   -0.6290198
:EIG00006:      -0.6231184   -0.6159739   -0.6156461    0.4093339    0.5435718
:EIG00011:       0.6324539    0.6341051    0.6342687    0.6380910    0.6415609
:EIG00016:       0.6524032    0.6569505    0.6574937    0.6604497    0.6633196
:EIG00021:       0.6675230    0.6703214    0.6716019    0.6757819    0.7096121
:EIG00026:       0.7243372    0.8046429    0.8185459    0.8460712    0.8782183
:EIG00031:       0.8947236    0.9832582    1.0278737    1.0732184    1.3753814
:EIG00036:       1.3761417    1.4638156    1.4675965    1.6292068    1.6809468
:EIG00041:       1.7516285    1.8530740    1.9344748    1.9490535    2.0533968
:EIG00046:       2.1015648    2.1157898    2.1866604    2.2369336    2.3350209
 
:EIG00051:       2.3841763    2.4376180    2.4566647    2.5334732    2.5643765
:EIG00056:       2.6397904    2.6679800    2.7048420    2.7942433    2.8548380
:EIG00061:       2.9220808    2.9314745    3.0721500    3.1361033    3.1556940
:EIG00066:       3.2563950    3.3141656    3.3460021    3.3582716    3.4120930
:EIG00071:       3.4202152    3.4705756    3.5017408    3.5652537    3.5828072
:EIG00076:       3.6235607    3.6500195    3.6942412    3.7198249    3.7496715
:EIG00081:       3.7690453    3.8139634    3.8271882    3.9102656    3.9195673
:EIG00086:       3.9495843    4.0438332    4.0546895    4.0870453    4.1007093
:EIG00091:       4.1344734    4.1713634    4.1974357    4.2160670    4.2293938
:EIG00096:       4.2721382    4.3121446    4.3241023    4.3371889    4.4151872
 
:EIG00101:       4.4917260    4.6149809    4.6288160    4.6982292    4.7272629
:EIG00106:       4.7277132    4.7835962    4.8030681    4.8380411    4.8694271
:EIG00111:       4.9540871    4.9968914    5.0006302    5.0591481    5.1152234
:EIG00116:       5.1511696    5.2066039    5.2188463    5.2619943    5.2981508
:EIG00121:       5.3082039    5.3806350    5.4380459    5.4518398    5.5052197
:EIG00126:       5.5926866    5.6286743    5.6497311    5.6839267    5.7297699
:EIG00131:       5.7401502    5.8068534    5.8237723    5.8319159    5.8609591
:EIG00136:       5.9431202    5.9672583    6.0259970    6.0289941    6.0627235
:EIG00141:       6.0837467    6.1063317    6.1476304    6.1743216    6.2396851
:EIG00146:       6.2417420    6.2502865    6.2794695    6.2895075    6.3671786
 
:EIG00151:       6.4173640    6.4271060    6.5066116    6.5229308    6.6012875
:EIG00156:       6.6840218    6.7773802    6.7892177    6.8182191    6.8800747
:EIG00161:       6.9505310    6.9631480    7.0096600    7.0362045    7.0459215
:EIG00166:       7.1088262    7.1157804    7.1233758    7.1760215    7.2386012
:EIG00171:       7.2498523    7.3002993    7.3363504    7.3473011    7.4081790
:EIG00176:       7.4234480    7.4523785    7.4769567    7.5241721    7.5524019
:EIG00181:       7.5946301    7.6057465    7.6165820    7.6516257    7.6885300
:EIG00186:       7.6985720    7.7639921    7.8465774    7.8590226    7.8708988
:EIG00191:       7.8914762    7.9183607    7.9730946    7.9851495    7.9881682
:EIG00196:       8.0084822    8.0201486    8.0793571    8.0803748    8.1243459
 
:EIG00201:       8.1369539
       ********************************************************

:KPT   :      NUMBER OF K-POINTS:   288

------- case.scfso --------
   0.0   0.0 angle (M,z), angle (M,x) deg
 
        SPIN-ORBIT EIGENVALUES:
     K=   0.06250   0.00000   0.06250            1
      MATRIX SIZE=  402   WEIGHT= 4.00
     EIGENVALUES ARE:
          -1.9993135   -1.9993135   -1.9841711   -1.9841711   -0.8139538
          -0.8139538   -0.7711169   -0.7711169   -0.6266645   -0.6266645
          -0.5606519   -0.5606519   -0.5574689   -0.5574689   -0.5492074
          -0.5492074    0.4093734    0.4093734    0.5434451    0.5434451
           0.6260894    0.6260894    0.6290458    0.6290458    0.6306221
           0.6306221    0.6324288    0.6324288    0.6357638    0.6357638
           0.6401188    0.6401188    0.6561665    0.6561666    0.6632274
           0.6632274    0.6662560    0.6662560    0.6682544    0.6682544

           0.6713559    0.6713559    0.6757098    0.6757098    0.6772442
           0.6772442    0.6815489    0.6815489    0.7104578    0.7104578
           0.7243034    0.7243034    0.8032687    0.8032687    0.8193214
           0.8193214    0.8464365    0.8464366    0.8786851    0.8786851
           0.8947919    0.8947919    0.9830958    0.9830958    1.0281571
           1.0281571    1.0733444    1.0733444    1.3742123    1.3742123
           1.3775298    1.3775298    1.4637080    1.4637080    1.4677285
           1.4677285    1.6288136    1.6288136    1.6804105    1.6804105

           1.7515700    1.7515700    1.8516417    1.8516417    1.9326139
           1.9326139    1.9504892    1.9504892    2.0538080    2.0538080
           2.1013350    2.1013350    2.1141198    2.1141198    2.1867922
           2.1867922    2.2377403    2.2377403    2.3346843    2.3346843
           2.3836657    2.3836657    2.4351604    2.4351604    2.4583042
           2.4583042    2.5337097    2.5337097    2.5657918    2.5657918
           2.6397646    2.6397646    2.6674814    2.6674814    2.7056632
           2.7056632    2.7945214    2.7945214    2.8545934    2.8545934

           2.9216539    2.9216539    2.9359431    2.9359431    3.0720430
           3.0720430    3.1361279    3.1361279    3.1558982    3.1558982
           3.2563722    3.2563722    3.3141571    3.3141571    3.3462708
           3.3462708    3.3579135    3.3579135    3.4121971    3.4121971
           3.4204425    3.4204425    3.4705622    3.4705622    3.5018026
           3.5018026    3.5645090    3.5645090    3.5836682    3.5836682
           3.6237836    3.6237836    3.6516259    3.6516259    3.6943229
           3.6943229    3.7200097    3.7200097    3.7500263    3.7500263

           3.7691752    3.7691752    3.8139830    3.8139830    3.8275141
           3.8275141    3.9102850    3.9102850    3.9197651    3.9197651
           3.9496955    3.9496955    4.0438205    4.0438205    4.0548278
           4.0548278    4.0870640    4.0870640    4.1007710    4.1007710
           4.1345003    4.1345003    4.1714143    4.1714143    4.1974433
           4.1974433    4.2159587    4.2159587    4.2293355    4.2293355
           4.2721871    4.2721871    4.3119328    4.3119328    4.3243467
           4.3243467    4.3373491    4.3373491    4.4152570    4.4152570

           4.4916087    4.4916087
       ********************************************************

------- case.scf2 --------
:GMA  : POTENTIAL AND CHARGE CUT-OFF  12.00 Ry**.5




:POS001: at.nr.  -1 position = 0.00000 0.89750 0.25000  multiplicity =  2

       lmmax 16
       lm=   0 0  1 0  2 0  2 2  3 0  3 2  4 0  4 2  4 4  5 0  5 2  5 4  6 0  6 2  6 4  6 6
:FER gutzwiller fermi energy   0.65963
:EORB         -0.204943837
:SUM sum of gutz band energies         -9.763925106

:CHA001: total charge inside sphere   1 =     9.517431
:PCS001: partial charges sphere =  1 s,p,d,f,px,py,pz,d-z2,d-x2y2,d-xy,d-xz,d-yz 
:QTL001: 1.9446 5.0242 0.5839 1.9646 1.6714 1.6723 1.6804 0.1093 0.1091 0.1254 0.1133 0.1267

                      vxx         vyy         vzz       up to r

:VZZ001:             4.62020     3.42388    -8.04409       2.300

:CHA  : total charge inside unit cell =      13.000000

------- case.scfc --------

        1.ATOM      Pr1                  14 CORE STATES
       CORE-FORCE in mRy/a.u. = |F|      Fx             Fy             Fz
:FCO001:   1.ATOM    564.574297519871      0.000000000000      0.000000000000    564.574297519871

:1S 001: 1S               -3066.957551596 Ry
:2S 001: 2S                -492.711033404 Ry
:2PP001: 2P*               -465.810008437 Ry
:2P 001: 2P                -430.412576987 Ry
:3S 001: 3S                -105.802720285 Ry
:3PP001: 3P*                -94.340481763 Ry
:3P 001: 3P                 -87.332723360 Ry
:3DD001: 3D*                -67.259503948 Ry
:3D 001: 3D                 -65.747970306 Ry
:4S 001: 4S                 -20.480991836 Ry
:4PP001: 4P*                -16.187744964 Ry
:4P 001: 4P                 -14.660325275 Ry
:4DD001: 4D*                 -7.593105522 Ry
:4D 001: 4D                  -7.323683967 Ry

------- case.scfm --------
:CINT001 Core Integral Atom   1   45.998494

       DENSITY AT NUCLEUS
        JATOM        VALENCE       SEMI-CORE          CORE           TOTAL
:RTO001:   1      650.336489        0.000000   656824.353340   657474.689829
     
       CHARGES OF NEW CHARGE DENSITY
:NTO   : INTERSTITIAL CHARGE =     6.964977
:NPC   : PW Pseudocharge     =    17.019528
:NTO001: CHARGE SPHERE  1    =    55.515925

:NEC01: NUCLEAR AND ELECTRONIC CHARGE    118.00000   117.99683
     
       CHARGES OF OLD CHARGE DENSITY
:OTO   : INTERSTITIAL CHARGE =     6.964714
:OPC   : PW Pseudocharge     =    17.025564
:OTO001: CHARGE SPHERE  1    =    55.517643

:NEC02: NUCLEAR AND ELECTRONIC CHARGE    118.00000   118.00000
     
       CONVERGENCE TEST
:DTO001: DIFFERENCE IN SPHERE  1 =  0.0033017

:DIS  :  CHARGE DISTANCE       ( 0.0033017 for atom    1 spin 1)      0.0033017
 PW Mixed is          491
 
******************************************************
* MULTISECANT MIXING VER9 RELEASE 10.4.0              *
* Standard Mode with controls                        *
* Fixed density scale                                *
* Regularization       1.000E-04                     *
* Trust Upper Limit    5.000E+00                     *
* Max Number of Memory Steps    8                    *
******************************************************
 
:PWTMP   3.6775E+02  1.9467E+02  4.6968E+02
:PLANE:  PW TOTAL      4.7240 DISTAN   7.12E-04  1.51E-02 %
:CHARG:  CLM/ATOM   1381.9547 DISTAN   5.14E-03  3.72E-04 %
 
Step History
        DMIX         DMIXT        Red     Pred      Trust     Lambda    MagRel    MagAbs     Beta
  1   3.5000E-02   3.5000E-02 -1.00E+00  1.00E+00 -1.00E+01  1.00E+00  3.50E-02  3.50E-02  1.00E+00
  2   1.5000E-01   1.5000E-01  6.24E-01  1.00E+00 -1.00E+01  1.00E+00  1.50E-01  5.16E-03  1.00E+00
  3   7.1250E-02   7.1250E-02  5.53E-01  6.18E-01  3.00E+00  1.90E-01  3.03E-01  6.50E-03  1.00E+00
  4   1.7813E-01   1.7813E-01 -1.00E+00  3.31E-01  4.00E+00  1.00E+00  5.43E-01  6.45E-03  1.00E+00
:JACOBIANS    3.218E-02   7.598E-01
  
:NORMS:  1/Froebius, Min, Max, Used   0.5682E+00  0.4422E+00  0.7205E+00  0.6413E+00
:INFO :  Number of Memory Steps    3 Skipping    0
:INFO :  SLambda=    1.8615817152  Max    1.8615817152
:PREDicted Charge, CTotal, PW Trust    7.337E-04   1.467E-03   5.894E-04
:PREDicted DMix, Beta, BLim   2.6580E-01  1.3182E+00  7.4686E-01

Eigenvalues, unscaled except for SY+YY
   #     SY Real        SY Imag          SS             YY         SY+YY Real      SY+YY Imag
   1   1.396750E-05   0.000000E+00   8.016542E-01   1.949298E+00   1.114555E-04   0.000000E+00
   2   5.271298E-01   0.000000E+00   1.667408E-01   1.050625E+00   3.597199E+00   0.000000E+00
   3   9.625389E-01   0.000000E+00   2.699081E-06   7.765755E-05   2.175855E+00   0.000000E+00
 
:INFO :  Singular value  3.677E+00 Weight  1.000E+00 Projection -3.600E-03
:INFO :  Singular value  2.129E+00 Weight  1.000E+00 Projection  7.682E-04
:INFO :  Singular value  1.115E-04 Weight  2.464E-01 Projection -6.940E-03
:RANK :  ACTIVE   2.25/3  =  74.88 % ; YY RANK   2.14/3  =  71.23 %
 
:BLIM :  VZERO Control Off
:TRUST:  Step 5.33E+00  Charge 7.50E-02 (e) CTO  2.50E-01 (e) PW  3.50E-01 (e)
:DIRM :  MEMORY  3/8  SCALE   1.000 RED  0.44 PRED  0.33 NEXT  0.25 
:TRAVE:  Charge 1.01E-03 (e) CTO  2.02E-03 (e) PW  1.94E-03 (e)
:DIRP :  |MSR1|= 5.569E-04 |PRATT|= 7.117E-04 ANGLE=  21.4 DEGREES
:DIRQ :  |MSR1|= 2.974E-03 |PRATT|= 5.141E-03 ANGLE=  34.0 DEGREES
:DIRT :  |MSR1|= 3.025E-03 |PRATT|= 5.190E-03 ANGLE=  33.8 DEGREES
:MIX  :   MSE1   REGULARIZATION:  1.95E-04 GREED: 0.19790  Newton 1.00  0.5829                
     
       CHARGES OF MIXED CHARGE DENSITY
:CTO   : INTERSTITIAL CHARGE =     6.966129
:CPC   : PW Pseudocharge     =    17.027052
:CTO001: CHARGE SPHERE  1    =    55.516936

:NEC03: NUCLEAR AND ELECTRONIC CHARGE    118.00000   118.00000

PW CHANGE     H    K    L      Current       Change    Residue
:PTO001:      0    0    0  5.10836713E-02  6.178E-06  1.097E-05
:PTO003:      0    2    0  1.40326945E-02  1.131E-06 -1.047E-06
:PTO004:     -1    1    0  6.95898377E-02  6.372E-06  5.468E-06
:PTO005:      0    2   -1 -8.10959039E-02 -7.236E-06 -4.966E-06
:PTO006:      0    0   -2 -4.20122809E-02 -4.312E-06 -4.514E-06
:PTO007:     -1    1   -1 -8.81429475E-02 -7.407E-06 -7.128E-06
:PTO008:      0    2   -2 -1.45384670E-02 -1.948E-06 -1.311E-06
:PTO009:     -1    1   -2 -7.42567639E-02 -3.945E-06 -7.192E-07
:PTO011:     -1    3    0 -1.21649915E-02 -1.969E-06 -2.785E-06
:PTO012:     -1    3   -1 -5.46928265E-02 -7.817E-06 -5.578E-06
:PTO013:      0    4    0 -1.00190352E-02 -2.111E-06 -1.971E-06
:PTO014:      0    2   -3  2.28627861E-02  3.513E-06  2.874E-06

:ENE  : ********** TOTAL ENERGY IN Ry =       -36944.23890291

       TOTAL FORCE IN mRy/a.u. = |F|     Fx             Fy             Fz     with/without FOR in case.in2
:FOR001:   1.ATOM         16.054          0.000          0.000        -16.054 partial forces
       TOTAL FORCE WITH RESPECT TO GLOBAL CARTESIAN COORDINATES:
:FCA001:   1.ATOM                         0.000        -16.054          0.000 partial forces
       TOTAL FORCE WITH RESPECT TO THE GLOBAL COORDINATE SYSTEM:
:FGL001:   1.ATOM                 0.000000000   -16.054072623     0.000000000 partial forces

------- case.scf0 --------
 Flat Integration
 New Mode for Coulomb Integral
 Consistent 3/8+Simpson combinations
 Extension of core to zero
 LDM version in phi
 Fifth-order quadrature in outwin


            ---------
:ITE066: 66. ITERATION
            ---------

:NATO :    1 INDEPENDENT AND    2 TOTAL ATOMS IN UNITCELL
       SUBSTANCE: aU                                                          

       LATTICE                      = CXY 
:POT  : POTENTIAL OPTION EX_LDA EC_LDA VX_LDA VC_LDA
:LAT  : LATTICE CONSTANTS=  6.41698 13.02167 11.24187    1.571    1.571    1.571
:VOL  : UNIT CELL VOLUME =     469.68395
       MODE OF CALCULATION IS       = RELA
       NON-SPINPOLARIZED CALCULATION
:IFFT  : FFT-parameters:   54  100   90 Factor: 2.00


   CONVERGENCE PARAMETER FOR PSEUDOCHARGE: NCON=  9
   MAXIMAL VALUE OF RMT(JATOM)*ABSK(NKK) : RK  =27.59878


:VKCOUL :  VK-COUL convergence: 0.610E-07
       ATOMNUMBER=  1 Pr1        VCOUL-ZERO =  0.83581E-01
:EFG001:                        EFG         =    -8.06656   *10**21  V / m**2
                               V20  TOT/SRF=    -6.98584    -0.02985
                               V22  TOT/SRF=     0.59373     0.00265
                               V22M TOT/SRF=     0.00000     0.00000
                               V21  TOT/SRF=     0.00000     0.00000
                               V21M TOT/SRF=     0.00000     0.00000

              4.62701    0.00000    0.00000        4.62701    0.00000    0.00000
              0.00000    3.43954    0.00000        0.00000    3.43954    0.00000
              0.00000    0.00000   -8.06656        0.00000    0.00000   -8.06656

         MAIN DIRECTIONS OF THE EFG   1.0000  0.0000  0.0000
                                      0.0000  1.0000  0.0000
                                      0.0000  0.0000  1.0000
:ANG001:  ANGLE WITH OLD X-AXIS =         0.0

:ETA001:                         ASYMM. ETA =     0.14721


     HELLMANN-FEYNMAN-FORCE IN mRy/a.u. = |F|  Fx       Fy             Fz
:FHF001:   1.ATOM    572.501814334389      0.000000000000      0.000000000000   -572.501814334389

:FIT001: LUSE= 13 SIGMA OF V-XC FIT FOR ATOM  1  0.8536217E-05
:FIT001: LUSE= 13 SIGMA OF V-XC FIT FOR ATOM  1  0.8536217E-05
:DEN  : DENSITY INTEGRAL  =        -14150.08067800   (Ry)
       ELS_POTENTIAL_AT Z=0 and Z=0.5:   0.72777   0.72777
       ELS_POTENTIAL_AT Y=0 and Y=0.5:   0.06494   0.06494
:VZERO:v0,v0c,v0x   0.14669   0.72777  -0.58108 v5,v5c,v5x   0.14669   0.72777  -0.58108
:VZERY:v0,v0c,v0x  -0.71201   0.06494  -0.77695 v5,v5c,v5x  -0.71201   0.06494  -0.77695
:VZERX:v0,v0c,v0x  -1.12346  -0.37947  -0.74400 v5,v5c,v5x  -1.12346  -0.37947  -0.74400

------- case.scf1 --------
:LMAX-WF:   10   Non-Spherical LMAX:   4

          ATOMIC SPHERE DEPENDENT PARAMETERS FOR ATOM  Pr1       
:e__0001: OVERALL ENERGY PARAMETER IS    0.4416
          OVERALL BASIS SET ON ATOM IS LAPW
:E0_0001: E( 0)=    0.4416
             APW+lo
:E0_0001: E( 0)=   -2.0275   E(BOTTOM)=   -2.663   E(TOP)=   -1.392  4  5   177
             LOCAL ORBITAL
:E1_0001: E( 1)=    0.8416
             APW+lo
:E1_0001: E( 1)=   -0.5573   E(BOTTOM)=   -1.515   E(TOP)=    0.400  3  4   198
             LOCAL ORBITAL
:E3_0001: E( 3)=    0.6245   E(BOTTOM)=    0.417   E(TOP)=    0.832  0  1   119
             APW+lo
:E2_0001: E( 2)=    0.4416   E(BOTTOM)=    0.227   E(TOP)= -200.000  2 -1    89
             APW+lo

       K=   0.06250   0.00000   0.06250            1
:RKM  : MATRIX SIZE   441LOs:  40  RKM= 8.49  WEIGHT= 4.00  PGR:    
       EIGENVALUES ARE:
:EIG00001:      -1.9997717   -1.9846378   -0.7280386   -0.6472827   -0.6293699
:EIG00006:      -0.6234858   -0.6163359   -0.6160170    0.4093259    0.5435265
:EIG00011:       0.6317721    0.6333520    0.6335258    0.6373452    0.6408216
:EIG00016:       0.6515842    0.6561282    0.6566827    0.6596315    0.6625257
:EIG00021:       0.6666894    0.6695251    0.6707903    0.6749513    0.7093097
:EIG00026:       0.7241484    0.8044737    0.8184202    0.8459501    0.8780946
:EIG00031:       0.8945852    0.9831142    1.0277034    1.0730338    1.3752403
:EIG00036:       1.3760775    1.4637681    1.4675234    1.6291772    1.6809118
:EIG00041:       1.7515638    1.8530147    1.9344088    1.9489771    2.0532897
:EIG00046:       2.1014982    2.1157625    2.1865924    2.2368874    2.3349380
 
:EIG00051:       2.3841076    2.4375538    2.4566048    2.5333914    2.5642694
:EIG00056:       2.6397401    2.6679481    2.7046946    2.7941836    2.8547479
:EIG00061:       2.9220509    2.9313652    3.0720696    3.1361057    3.1556596
:EIG00066:       3.2563435    3.3141469    3.3459277    3.3581888    3.4121063
:EIG00071:       3.4202030    3.4705605    3.5017157    3.5652163    3.5827878
:EIG00076:       3.6235038    3.6500124    3.6942164    3.7198136    3.7496331
:EIG00081:       3.7690387    3.8139803    3.8271797    3.9102164    3.9195610
:EIG00086:       3.9496080    4.0438708    4.0546943    4.0870459    4.1006853
:EIG00091:       4.1344886    4.1713488    4.1974573    4.2160221    4.2293472
:EIG00096:       4.2721522    4.3121538    4.3240989    4.3371886    4.4152057
 
:EIG00101:       4.4916968    4.6149863    4.6287810    4.6982153    4.7272805
:EIG00106:       4.7277256    4.7836061    4.8030649    4.8380361    4.8694455
:EIG00111:       4.9541134    4.9969242    5.0005712    5.0591139    5.1152312
:EIG00116:       5.1511308    5.2066254    5.2188258    5.2619593    5.2980968
:EIG00121:       5.3081534    5.3806421    5.4380105    5.4518548    5.5051960
:EIG00126:       5.5926838    5.6286322    5.6497107    5.6839147    5.7297703
:EIG00131:       5.7401209    5.8068528    5.8237656    5.8319099    5.8609396
:EIG00136:       5.9431205    5.9672661    6.0260142    6.0290075    6.0627121
:EIG00141:       6.0837300    6.1062824    6.1476278    6.1743524    6.2397106
:EIG00146:       6.2417541    6.2502959    6.2793979    6.2895014    6.3672000
 
:EIG00151:       6.4173958    6.4270859    6.5066396    6.5229086    6.6012628
:EIG00156:       6.6840229    6.7773817    6.7892255    6.8182320    6.8800571
:EIG00161:       6.9505472    6.9631068    7.0096622    7.0361717    7.0458977
:EIG00166:       7.1088170    7.1157816    7.1233716    7.1760223    7.2385886
:EIG00171:       7.2498249    7.3002864    7.3363220    7.3472799    7.4081537
:EIG00176:       7.4234260    7.4523125    7.4769442    7.5241385    7.5523860
:EIG00181:       7.5946269    7.6057348    7.6166013    7.6515862    7.6885356
:EIG00186:       7.6985832    7.7639428    7.8465713    7.8590089    7.8708656
:EIG00191:       7.8914837    7.9183715    7.9731091    7.9851660    7.9881759
:EIG00196:       8.0084747    8.0201637    8.0793585    8.0803925    8.1243396
 
:EIG00201:       8.1369323
       ********************************************************

:KPT   :      NUMBER OF K-POINTS:   288

------- case.scfso --------
   0.0   0.0 angle (M,z), angle (M,x) deg
 
        SPIN-ORBIT EIGENVALUES:
     K=   0.06250   0.00000   0.06250            1
      MATRIX SIZE=  402   WEIGHT= 4.00
     EIGENVALUES ARE:
          -1.9997720   -1.9997720   -1.9846378   -1.9846378   -0.8143076
          -0.8143076   -0.7714995   -0.7714995   -0.6269838   -0.6269838
          -0.5610003   -0.5610003   -0.5578153   -0.5578153   -0.5495593
          -0.5495593    0.4093653    0.4093653    0.5433990    0.5433990
           0.6253577    0.6253577    0.6282803    0.6282803    0.6298649
           0.6298649    0.6316673    0.6316673    0.6349951    0.6349951
           0.6392923    0.6392923    0.6554350    0.6554350    0.6624331
           0.6624331    0.6654375    0.6654375    0.6674657    0.6674657

           0.6705608    0.6705608    0.6749162    0.6749163    0.6764418
           0.6764418    0.6807280    0.6807280    0.7101301    0.7101301
           0.7241034    0.7241034    0.8030927    0.8030927    0.8191966
           0.8191966    0.8463150    0.8463150    0.8785615    0.8785615
           0.8946536    0.8946536    0.9829516    0.9829516    1.0279871
           1.0279871    1.0731601    1.0731601    1.3740974    1.3740974
           1.3774393    1.3774393    1.4636598    1.4636598    1.4676559
           1.4676559    1.6287837    1.6287837    1.6803754    1.6803754

           1.7515052    1.7515052    1.8515818    1.8515818    1.9325464
           1.9325464    1.9504148    1.9504148    2.0537013    2.0537013
           2.1012690    2.1012690    2.1140905    2.1140905    2.1867255
           2.1867255    2.2376928    2.2376928    2.3346014    2.3346014
           2.3835976    2.3835976    2.4350970    2.4350970    2.4582434
           2.4582434    2.5336293    2.5336293    2.5656853    2.5656853
           2.6397131    2.6397131    2.6674482    2.6674482    2.7055180
           2.7055180    2.7944611    2.7944611    2.8545026    2.8545026

           2.9216212    2.9216212    2.9358374    2.9358374    3.0719627
           3.0719627    3.1361303    3.1361303    3.1558638    3.1558638
           3.2563205    3.2563205    3.3141380    3.3141380    3.3461968
           3.3461968    3.3578314    3.3578314    3.4122101    3.4122101
           3.4204303    3.4204303    3.4705472    3.4705472    3.5017775
           3.5017775    3.5644725    3.5644725    3.5836475    3.5836475
           3.6237268    3.6237268    3.6516189    3.6516189    3.6942981
           3.6942981    3.7199979    3.7199979    3.7499883    3.7499883

           3.7691687    3.7691687    3.8139999    3.8139999    3.8275054
           3.8275054    3.9102367    3.9102367    3.9197580    3.9197580
           3.9497192    3.9497192    4.0438582    4.0438582    4.0548326
           4.0548326    4.0870646    4.0870646    4.1007470    4.1007470
           4.1345154    4.1345154    4.1713997    4.1713997    4.1974647
           4.1974647    4.2159140    4.2159140    4.2292891    4.2292891
           4.2722010    4.2722010    4.3119413    4.3119413    4.3243442
           4.3243442    4.3373482    4.3373482    4.4152755    4.4152755

           4.4915795    4.4915795
       ********************************************************

------- case.scf2 --------
:GMA  : POTENTIAL AND CHARGE CUT-OFF  12.00 Ry**.5




:POS001: at.nr.  -1 position = 0.00000 0.89750 0.25000  multiplicity =  2

       lmmax 16
       lm=   0 0  1 0  2 0  2 2  3 0  3 2  4 0  4 2  4 4  5 0  5 2  5 4  6 0  6 2  6 4  6 6
:FER gutzwiller fermi energy   0.65948
:EORB         -0.207605312
:SUM sum of gutz band energies         -9.770887817

:CHA001: total charge inside sphere   1 =     9.519049
:PCS001: partial charges sphere =  1 s,p,d,f,px,py,pz,d-z2,d-x2y2,d-xy,d-xz,d-yz 
:QTL001: 1.9446 5.0244 0.5837 1.9660 1.6715 1.6724 1.6805 0.1093 0.1091 0.1254 0.1133 0.1267

                      vxx         vyy         vzz       up to r

:VZZ001:             4.61426     3.40866    -8.02292       2.300

:CHA  : total charge inside unit cell =      13.000000

------- case.scfc --------

        1.ATOM      Pr1                  14 CORE STATES
       CORE-FORCE in mRy/a.u. = |F|      Fx             Fy             Fz
:FCO001:   1.ATOM    556.780017637638      0.000000000000      0.000000000000    556.780017637638

:1S 001: 1S               -3066.958143404 Ry
:2S 001: 2S                -492.711807657 Ry
:2PP001: 2P*               -465.810742211 Ry
:2P 001: 2P                -430.413325893 Ry
:3S 001: 3S                -105.803817598 Ry
:3PP001: 3P*                -94.341562480 Ry
:3P 001: 3P                 -87.333818378 Ry
:3DD001: 3D*                -67.260556521 Ry
:3D 001: 3D                 -65.749028448 Ry
:4S 001: 4S                 -20.482126214 Ry
:4PP001: 4P*                -16.188864231 Ry
:4P 001: 4P                 -14.661427331 Ry
:4DD001: 4D*                 -7.594163742 Ry
:4D 001: 4D                  -7.324735317 Ry

------- case.scfm --------
:CINT001 Core Integral Atom   1   45.998494

       DENSITY AT NUCLEUS
        JATOM        VALENCE       SEMI-CORE          CORE           TOTAL
:RTO001:   1      650.403558        0.000000   656824.319887   657474.723444
     
       CHARGES OF NEW CHARGE DENSITY
:NTO   : INTERSTITIAL CHARGE =     6.962018
:NPC   : PW Pseudocharge     =    17.019139
:NTO001: CHARGE SPHERE  1    =    55.517543

:NEC01: NUCLEAR AND ELECTRONIC CHARGE    118.00000   117.99710
     
       CHARGES OF OLD CHARGE DENSITY
:OTO   : INTERSTITIAL CHARGE =     6.966129
:OPC   : PW Pseudocharge     =    17.027052
:OTO001: CHARGE SPHERE  1    =    55.516936

:NEC02: NUCLEAR AND ELECTRONIC CHARGE    118.00000   118.00000
     
       CONVERGENCE TEST
:DTO001: DIFFERENCE IN SPHERE  1 =  0.0008678

:DIS  :  CHARGE DISTANCE       ( 0.0008678 for atom    1 spin 1)      0.0008678
 PW Mixed is          491
 
******************************************************
* MULTISECANT MIXING VER9 RELEASE 10.4.0              *
* Standard Mode with controls                        *
* Fixed density scale                                *
* Regularization       1.000E-04                     *
* Trust Upper Limit    5.000E+00                     *
* Max Number of Memory Steps    8                    *
******************************************************
 
:PWTMP   3.6775E+02  1.9467E+02  4.6968E+02
:PLANE:  PW TOTAL      4.7245 DISTAN   2.78E-04  5.89E-03 %
:CHARG:  CLM/ATOM   1381.9556 DISTAN   1.28E-03  9.24E-05 %
 
Step History
        DMIX         DMIXT        Red     Pred      Trust     Lambda    MagRel    MagAbs     Beta
  1   3.5000E-02   3.5000E-02 -1.00E+00  1.00E+00 -1.00E+01  1.00E+00  3.50E-02  3.50E-02  1.00E+00
  2   1.5000E-01   1.5000E-01  6.24E-01  1.00E+00 -1.00E+01  1.00E+00  1.50E-01  5.16E-03  1.00E+00
  3   7.1250E-02   7.1250E-02  5.53E-01  6.18E-01  3.00E+00  1.90E-01  3.03E-01  6.50E-03  1.00E+00
  4   1.7813E-01   1.7813E-01  4.37E-01  3.31E-01  4.00E+00  1.86E+00  5.43E-01  6.45E-03  1.00E+00
  5   1.9790E-01   1.9790E-01 -1.00E+00  2.50E-01  5.33E+00  1.00E+00  5.83E-01  3.03E-03  1.00E+00
:JACOBIANS    4.234E-02   1.104E+00
  
:NORMS:  1/Froebius, Min, Max, Used   0.5831E+00  0.4522E+00  0.6154E+00  0.6154E+00
:INFO :  Number of Memory Steps    4 Skipping    0
:INFO :  SLambda=    1.8225416591  Max    1.8225416591
[...]
:TRAVE:  Charge 3.92E-04 (e) CTO  7.83E-04 (e) PW  7.26E-04 (e)
:DIRP :  |MSR1|= 6.195E-05 |PRATT|= 1.162E-04 ANGLE=  45.5 DEGREES
:DIRQ :  |MSR1|= 3.233E-04 |PRATT|= 1.007E-03 ANGLE=  37.3 DEGREES
:DIRT :  |MSR1|= 3.292E-04 |PRATT|= 1.013E-03 ANGLE=  37.7 DEGREES
:MIX  :   MSE1   REGULARIZATION:  3.86E-04 GREED: 0.19902  Newton 1.00  0.3248                
     
       CHARGES OF MIXED CHARGE DENSITY
:CTO   : INTERSTITIAL CHARGE =     6.965220
:CPC   : PW Pseudocharge     =    17.025930
:CTO001: CHARGE SPHERE  1    =    55.517390

:NEC03: NUCLEAR AND ELECTRONIC CHARGE    118.00000   118.00000

PW CHANGE     H    K    L      Current       Change    Residue
:PTO001:      0    0    0  5.10793492E-02  2.079E-07  1.866E-06
:PTO003:      0    2    0  1.40321429E-02  8.952E-08  1.007E-08
:PTO004:     -1    1    0  6.95870424E-02  4.673E-07  4.193E-07
:PTO005:      0    2   -1 -8.10915571E-02 -2.212E-07  1.612E-07
:PTO006:      0    0   -2 -4.20103645E-02 -2.964E-07 -3.675E-07
:PTO007:     -1    1   -1 -8.81382077E-02 -3.194E-07 -3.120E-07
:PTO008:      0    2   -2 -1.45380076E-02 -2.522E-07 -3.514E-07
:PTO009:     -1    1   -2 -7.42526083E-02 -1.035E-07  7.478E-08
:PTO011:     -1    3    0 -1.21645683E-02 -1.910E-07 -1.471E-07
:PTO012:     -1    3   -1 -5.46913881E-02 -9.884E-07 -8.487E-07
:PTO013:      0    4    0 -1.00189505E-02 -2.809E-07 -2.189E-07
:PTO014:      0    2   -3  2.28627526E-02  5.430E-07  3.766E-07

:ENE  : ********** TOTAL ENERGY IN Ry =       -36944.23891157

       TOTAL FORCE IN mRy/a.u. = |F|     Fx             Fy             Fz     with/without FOR in case.in2
:FOR001:   1.ATOM         15.667          0.000          0.000        -15.667 partial forces
       TOTAL FORCE WITH RESPECT TO GLOBAL CARTESIAN COORDINATES:
:FCA001:   1.ATOM                         0.000        -15.667          0.000 partial forces
       TOTAL FORCE WITH RESPECT TO THE GLOBAL COORDINATE SYSTEM:
:FGL001:   1.ATOM                 0.000000000   -15.666623536     0.000000000 partial forces

------- case.scf0 --------
 Flat Integration
 New Mode for Coulomb Integral
 Consistent 3/8+Simpson combinations
 Extension of core to zero
 LDM version in phi
 Fifth-order quadrature in outwin


            ---------
:ITE068: 68. ITERATION
            ---------

:NATO :    1 INDEPENDENT AND    2 TOTAL ATOMS IN UNITCELL
       SUBSTANCE: aU                                                          

       LATTICE                      = CXY 
:POT  : POTENTIAL OPTION EX_LDA EC_LDA VX_LDA VC_LDA
:LAT  : LATTICE CONSTANTS=  6.41698 13.02167 11.24187    1.571    1.571    1.571
:VOL  : UNIT CELL VOLUME =     469.68395
       MODE OF CALCULATION IS       = RELA
       NON-SPINPOLARIZED CALCULATION
:IFFT  : FFT-parameters:   54  100   90 Factor: 2.00


   CONVERGENCE PARAMETER FOR PSEUDOCHARGE: NCON=  9
   MAXIMAL VALUE OF RMT(JATOM)*ABSK(NKK) : RK  =27.59878


:VKCOUL :  VK-COUL convergence: 0.610E-07
       ATOMNUMBER=  1 Pr1        VCOUL-ZERO =  0.83585E-01
:EFG001:                        EFG         =    -8.05886   *10**21  V / m**2
                               V20  TOT/SRF=    -6.97918    -0.02985
                               V22  TOT/SRF=     0.60287     0.00265
                               V22M TOT/SRF=     0.00000     0.00000
                               V21  TOT/SRF=     0.00000     0.00000
                               V21M TOT/SRF=     0.00000     0.00000

              4.63230    0.00000    0.00000        4.63230    0.00000    0.00000
              0.00000    3.42656    0.00000        0.00000    3.42656    0.00000
              0.00000    0.00000   -8.05886        0.00000    0.00000   -8.05886

         MAIN DIRECTIONS OF THE EFG   1.0000  0.0000  0.0000
                                      0.0000  1.0000  0.0000
                                      0.0000  0.0000  1.0000
:ANG001:  ANGLE WITH OLD X-AXIS =         0.0

:ETA001:                         ASYMM. ETA =     0.14962


     HELLMANN-FEYNMAN-FORCE IN mRy/a.u. = |F|  Fx       Fy             Fz
:FHF001:   1.ATOM    571.227730288672      0.000000000000      0.000000000000   -571.227730288672

:FIT001: LUSE= 13 SIGMA OF V-XC FIT FOR ATOM  1  0.8532250E-05
:FIT001: LUSE= 13 SIGMA OF V-XC FIT FOR ATOM  1  0.8532250E-05
:DEN  : DENSITY INTEGRAL  =        -14150.12613797   (Ry)
       ELS_POTENTIAL_AT Z=0 and Z=0.5:   0.72768   0.72768
       ELS_POTENTIAL_AT Y=0 and Y=0.5:   0.06493   0.06493
:VZERO:v0,v0c,v0x   0.14662   0.72768  -0.58106 v5,v5c,v5x   0.14662   0.72768  -0.58106
:VZERY:v0,v0c,v0x  -0.71199   0.06493  -0.77692 v5,v5c,v5x  -0.71199   0.06493  -0.77692
:VZERX:v0,v0c,v0x  -1.12340  -0.37943  -0.74397 v5,v5c,v5x  -1.12340  -0.37943  -0.74397

------- case.scf1 --------
:LMAX-WF:   10   Non-Spherical LMAX:   4

          ATOMIC SPHERE DEPENDENT PARAMETERS FOR ATOM  Pr1       
:e__0001: OVERALL ENERGY PARAMETER IS    0.4416
          OVERALL BASIS SET ON ATOM IS LAPW
:E0_0001: E( 0)=    0.4416
             APW+lo
:E0_0001: E( 0)=   -2.0273   E(BOTTOM)=   -2.662   E(TOP)=   -1.392  4  5   177
             LOCAL ORBITAL
:E1_0001: E( 1)=    0.8416
             APW+lo
:E1_0001: E( 1)=   -0.5571   E(BOTTOM)=   -1.514   E(TOP)=    0.400  3  4   191
             LOCAL ORBITAL
:E3_0001: E( 3)=    0.6249   E(BOTTOM)=    0.417   E(TOP)=    0.832  0  1   117
             APW+lo
:E2_0001: E( 2)=    0.4416   E(BOTTOM)=    0.227   E(TOP)= -200.000  2 -1    86
             APW+lo

       K=   0.06250   0.00000   0.06250            1
:RKM  : MATRIX SIZE   441LOs:  40  RKM= 8.49  WEIGHT= 4.00  PGR:    
       EIGENVALUES ARE:
:EIG00001:      -1.9995557   -1.9844176   -0.7278946   -0.6471155   -0.6291984
:EIG00006:      -0.6233122   -0.6161644   -0.6158415    0.4093059    0.5435329
:EIG00011:       0.6320658    0.6336822    0.6338423    0.6376719    0.6411488
:EIG00016:       0.6519360    0.6564829    0.6570394    0.6599900    0.6628782
:EIG00021:       0.6670495    0.6698760    0.6711517    0.6753174    0.7094390
:EIG00026:       0.7242234    0.8045348    0.8184732    0.8459941    0.8781456
:EIG00031:       0.8946444    0.9831724    1.0277774    1.0731181    1.3752940
:EIG00036:       1.3760835    1.4637654    1.4675381    1.6291675    1.6809000
:EIG00041:       1.7515723    1.8530191    1.9344209    1.9489909    2.0533249
:EIG00046:       2.1015090    2.1157521    2.1866068    2.2368875    2.3349597
 
:EIG00051:       2.3841238    2.4375645    2.4566140    2.5334135    2.5643028
:EIG00056:       2.6397456    2.6679434    2.7047466    2.7941978    2.8547737
:EIG00061:       2.9220455    2.9314005    3.0720913    3.1360837    3.1556568
:EIG00066:       3.2563520    3.3141359    3.3459497    3.3582117    3.4120794
:EIG00071:       3.4201916    3.4705521    3.5017122    3.5652170    3.5827782
:EIG00076:       3.6235156    3.6499938    3.6942099    3.7198022    3.7496366
:EIG00081:       3.7690246    3.8139557    3.8271659    3.9102253    3.9195490
:EIG00086:       3.9495782    4.0438303    4.0546749    4.0870250    4.1006837
:EIG00091:       4.1344631    4.1713404    4.1974301    4.2160319    4.2293584
:EIG00096:       4.2721249    4.3121297    4.3240826    4.3371680    4.4151776
 
:EIG00101:       4.4916942    4.6149650    4.6287826    4.6982034    4.7272495
:EIG00106:       4.7277009    4.7835795    4.8030502    4.8380240    4.8694165
:EIG00111:       4.9540771    4.9968848    5.0005848    5.0591191    5.1152151
:EIG00116:       5.1511367    5.2065958    5.2188197    5.2619646    5.2981117
:EIG00121:       5.3081629    5.3806192    5.4380087    5.4518286    5.5051922
:EIG00126:       5.5926672    5.6286335    5.6497059    5.6839024    5.7297537
:EIG00131:       5.7401196    5.8068360    5.8237515    5.8318936    5.8609346
:EIG00136:       5.9431017    5.9672434    6.0259923    6.0289826    6.0626991
:EIG00141:       6.0837228    6.1062924    6.1476116    6.1743200    6.2396807
:EIG00146:       6.2417286    6.2502736    6.2794187    6.2894839    6.3671706
 
:EIG00151:       6.4173626    6.4270763    6.5066059    6.5228986    6.6012564
:EIG00156:       6.6840047    6.7773653    6.7892029    6.8182075    6.8800483
:EIG00161:       6.9505234    6.9631126    7.0096439    7.0361747    7.0458907
:EIG00166:       7.1088042    7.1157629    7.1233589    7.1760054    7.2385759
:EIG00171:       7.2498184    7.3002780    7.3363198    7.3472760    7.4081497
:EIG00176:       7.4234217    7.4523272    7.4769371    7.5241382    7.5523777
:EIG00181:       7.5946111    7.6057238    7.6165717    7.6515888    7.6885132
:EIG00186:       7.6985604    7.7639484    7.8465538    7.8589957    7.8708657
:EIG00191:       7.8914613    7.9183446    7.9730825    7.9851391    7.9881542
:EIG00196:       8.0084592    8.0201360    8.0793404    8.0803657    8.1243231
 
:EIG00201:       8.1369252
       ********************************************************

:KPT   :      NUMBER OF K-POINTS:   288

------- case.scfso --------
   0.0   0.0 angle (M,z), angle (M,x) deg
 
        SPIN-ORBIT EIGENVALUES:
     K=   0.06250   0.00000   0.06250            1
      MATRIX SIZE=  402   WEIGHT= 4.00
     EIGENVALUES ARE:
          -1.9995560   -1.9995560   -1.9844176   -1.9844176   -0.8141402
          -0.8141402   -0.7713167   -0.7713167   -0.6268315   -0.6268315
          -0.5608333   -0.5608333   -0.5576481   -0.5576481   -0.5493923
          -0.5493923    0.4093453    0.4093453    0.5434059    0.5434059
           0.6256712    0.6256712    0.6286154    0.6286154    0.6301951
           0.6301951    0.6319995    0.6319995    0.6353337    0.6353337
           0.6396500    0.6396500    0.6557559    0.6557559    0.6627814
           0.6627814    0.6657894    0.6657894    0.6678154    0.6678154

           0.6709030    0.6709030    0.6752641    0.6752641    0.6767980
           0.6767980    0.6810916    0.6810916    0.7102705    0.7102705
           0.7241834    0.7241834    0.8031587    0.8031587    0.8192473
           0.8192473    0.8463594    0.8463595    0.8786124    0.8786124
           0.8947127    0.8947127    0.9830099    0.9830099    1.0280610
           1.0280610    1.0732442    1.0732442    1.3741349    1.3741349
           1.3774615    1.3774615    1.4636577    1.4636577    1.4676702
           1.4676702    1.6287742    1.6287742    1.6803637    1.6803637

           1.7515138    1.7515138    1.8515865    1.8515865    1.9325589
           1.9325589    1.9504281    1.9504281    2.0537363    2.0537363
           2.1012794    2.1012794    2.1140813    2.1140813    2.1867391
           2.1867391    2.2376936    2.2376936    2.3346231    2.3346231
           2.3836134    2.3836134    2.4351075    2.4351075    2.4582530
           2.4582530    2.5336505    2.5336505    2.5657184    2.5657184
           2.6397192    2.6397192    2.6674441    2.6674441    2.7055689
           2.7055689    2.7944757    2.7944757    2.8545287    2.8545287

           2.9216172    2.9216172    2.9358709    2.9358709    3.0719843
           3.0719843    3.1361083    3.1361083    3.1558610    3.1558610
           3.2563291    3.2563291    3.3141272    3.3141272    3.3462186
           3.3462186    3.3578540    3.3578540    3.4121834    3.4121834
           3.4204189    3.4204189    3.4705388    3.4705388    3.5017740
           3.5017740    3.5644727    3.5644727    3.5836386    3.5836386
           3.6237386    3.6237386    3.6516002    3.6516002    3.6942916
           3.6942916    3.7199868    3.7199868    3.7499916    3.7499916

           3.7691545    3.7691545    3.8139753    3.8139753    3.8274918
           3.8274918    3.9102452    3.9102452    3.9197463    3.9197463
           3.9496894    3.9496894    4.0438177    4.0438177    4.0548132
           4.0548132    4.0870438    4.0870438    4.1007454    4.1007454
           4.1344900    4.1344900    4.1713913    4.1713913    4.1974376
           4.1974376    4.2159237    4.2159237    4.2293001    4.2293001
           4.2721738    4.2721738    4.3119175    4.3119175    4.3243275
           4.3243275    4.3373279    4.3373279    4.4152474    4.4152474

           4.4915769    4.4915769
       ********************************************************

------- case.scf2 --------
:GMA  : POTENTIAL AND CHARGE CUT-OFF  12.00 Ry**.5




:POS001: at.nr.  -1 position = 0.00000 0.89750 0.25000  multiplicity =  2

       lmmax 16
       lm=   0 0  1 0  2 0  2 2  3 0  3 2  4 0  4 2  4 4  5 0  5 2  5 4  6 0  6 2  6 4  6 6
:FER gutzwiller fermi energy   0.65947
:EORB         -0.205997148
:SUM sum of gutz band energies         -9.768151624

:CHA001: total charge inside sphere   1 =     9.518773
:PCS001: partial charges sphere =  1 s,p,d,f,px,py,pz,d-z2,d-x2y2,d-xy,d-xz,d-yz 
:QTL001: 1.9446 5.0242 0.5835 1.9662 1.6714 1.6724 1.6804 0.1092 0.1090 0.1253 0.1133 0.1266

                      vxx         vyy         vzz       up to r

:VZZ001:             4.61066     3.41031    -8.02097       2.300

:CHA  : total charge inside unit cell =      13.000003

------- case.scfc --------

        1.ATOM      Pr1                  14 CORE STATES
       CORE-FORCE in mRy/a.u. = |F|      Fx             Fy             Fz
:FCO001:   1.ATOM    555.639427447484      0.000000000000      0.000000000000    555.639427447484

:1S 001: 1S               -3066.957872937 Ry
:2S 001: 2S                -492.711447184 Ry
:2PP001: 2P*               -465.810401805 Ry
:2P 001: 2P                -430.412978023 Ry
:3S 001: 3S                -105.803313496 Ry
:3PP001: 3P*                -94.341065211 Ry
:3P 001: 3P                 -87.333315756 Ry
:3DD001: 3D*                -67.260070506 Ry
:3D 001: 3D                 -65.748540151 Ry
:4S 001: 4S                 -20.481640832 Ry
:4PP001: 4P*                -16.188385037 Ry
:4P 001: 4P                 -14.660956013 Ry
:4DD001: 4D*                 -7.593709264 Ry
:4D 001: 4D                  -7.324283723 Ry

------- case.scfm --------
:CINT001 Core Integral Atom   1   45.998494

       DENSITY AT NUCLEUS
        JATOM        VALENCE       SEMI-CORE          CORE           TOTAL
:RTO001:   1      650.371700        0.000000   656824.333466   657474.705166
     
       CHARGES OF NEW CHARGE DENSITY
:NTO   : INTERSTITIAL CHARGE =     6.962315
:NPC   : PW Pseudocharge     =    17.018763
:NTO001: CHARGE SPHERE  1    =    55.517267

:NEC01: NUCLEAR AND ELECTRONIC CHARGE    118.00000   117.99685
     
       CHARGES OF OLD CHARGE DENSITY
:OTO   : INTERSTITIAL CHARGE =     6.965220
:OPC   : PW Pseudocharge     =    17.025930
:OTO001: CHARGE SPHERE  1    =    55.517390

:NEC02: NUCLEAR AND ELECTRONIC CHARGE    118.00000   118.00000
     
       CONVERGENCE TEST
:DTO001: DIFFERENCE IN SPHERE  1 =  0.0001349

:DIS  :  CHARGE DISTANCE       ( 0.0001349 for atom    1 spin 1)      0.0001349
 PW Mixed is          491
 
******************************************************
* MULTISECANT MIXING VER9 RELEASE 10.4.0              *
* Standard Mode with controls                        *
* Fixed density scale                                *
* Regularization       1.000E-04                     *
* Trust Upper Limit    5.000E+00                     *
* Max Number of Memory Steps    8                    *
******************************************************
 
:PWTMP   3.6775E+02  1.9467E+02  4.6968E+02
:PLANE:  PW TOTAL      4.7243 DISTAN   1.60E-04  3.39E-03 %
:CHARG:  CLM/ATOM   1381.9552 DISTAN   2.01E-04  1.45E-05 %
 
Step History
        DMIX         DMIXT        Red     Pred      Trust     Lambda    MagRel    MagAbs     Beta
  1   3.5000E-02   3.5000E-02 -1.00E+00  1.00E+00 -1.00E+01  1.00E+00  3.50E-02  3.50E-02  1.00E+00
  2   1.5000E-01   1.5000E-01  6.24E-01  1.00E+00 -1.00E+01  1.00E+00  1.50E-01  5.16E-03  1.00E+00
  3   7.1250E-02   7.1250E-02  5.53E-01  6.18E-01  3.00E+00  1.90E-01  3.03E-01  6.50E-03  1.00E+00
  4   1.7813E-01   1.7813E-01  4.37E-01  3.31E-01  4.00E+00  1.86E+00  5.43E-01  6.45E-03  1.00E+00
  5   1.9790E-01   1.9790E-01  2.52E-01  2.50E-01  5.33E+00  1.82E+00  5.83E-01  3.03E-03  1.00E+00
  6   2.1028E-01   2.1028E-01  7.75E-01  6.36E-01  7.11E+00  1.73E+00  8.57E-01  1.12E-03  8.00E-01
  7   1.9902E-01   1.9902E-01 -1.00E+00  2.17E-01  9.17E+00  1.00E+00  3.25E-01  3.29E-04  8.22E-01
:JACOBIANS    6.719E-02   1.744E+00
  
:NORMS:  1/Froebius, Min, Max, Used   0.5853E+00  0.4085E+00  0.7632E+00  0.5853E+00
:INFO :  Number of Memory Steps    6 Skipping    0
:INFO :  SLambda=    1.7675127791  Max    1.7675127791
:PREDicted Charge, CTotal, PW Trust    9.752E-06   1.950E-05   4.456E-05
:PREDicted DMix, Beta, BLim   1.1275E-01  9.2899E-01  2.0649E+00

Eigenvalues, unscaled except for SY+YY
   #     SY Real        SY Imag          SS             YY         SY+YY Real      SY+YY Imag
   1   1.809356E+00   0.000000E+00   1.388827E+00   4.338835E+00   7.576005E+00   0.000000E+00
   2   7.334107E-01   0.000000E+00   5.124717E-01   9.768274E-01   2.072275E+00   0.000000E+00
   3   3.999642E-01   0.000000E+00   1.538611E-01   6.698573E-01   1.538132E+00   0.000000E+00
   4   5.313505E-04   2.051518E-04   3.046860E-04   1.402790E-02   1.605137E-02   0.000000E+00
   5   5.313505E-04  -2.051518E-04   7.238754E-05   4.310135E-04   2.991431E-05   0.000000E+00
   6   4.142241E-06   0.000000E+00   8.100859E-07   2.152642E-05   7.067260E-04   0.000000E+00
 
:INFO :  Singular value  7.715E+00 Weight  1.000E+00 Projection  6.508E-05
:INFO :  Singular value  2.061E+00 Weight  1.000E+00 Projection -8.994E-05
:INFO :  Singular value  1.520E+00 Weight  1.000E+00 Projection -5.243E-05
:INFO :  Singular value  1.608E-02 Weight  9.993E-01 Projection  1.058E-03
:INFO :  Singular value  7.059E-04 Weight  7.258E-01 Projection -3.554E-03
:INFO :  Singular value  2.989E-05 Weight  4.723E-03 Projection -2.406E-05
:RANK :  ACTIVE   4.73/6  =  78.83 % ; YY RANK   4.50/6  =  74.97 %
 
:DLIM :  Beta Active  9.023E-01
:BLIM :  VZERO Control Off
:TRUST:  Step 1.22E+01  Charge 3.84E-02 (e) CTO  1.28E-01 (e) PW  1.79E-01 (e)
:DIRM :  MEMORY  6/8  SCALE   1.000 RED  0.25 PRED  0.22 NEXT  0.30 BETA  0.90
:TRAVE:  Charge 2.02E-04 (e) CTO  4.04E-04 (e) PW  3.69E-04 (e)
:DIRP :  |MSR1|= 2.057E-05 |PRATT|= 1.603E-04 ANGLE=  23.0 DEGREES
:DIRQ :  |MSR1|= 5.321E-05 |PRATT|= 2.009E-04 ANGLE=  92.4 DEGREES
:DIRT :  |MSR1|= 5.705E-05 |PRATT|= 2.570E-04 ANGLE=  79.8 DEGREES
:MIX  :   MSE1   REGULARIZATION:  4.34E-04 GREED: 0.15291  Newton 1.00  0.2219                
     
       CHARGES OF MIXED CHARGE DENSITY
:CTO   : INTERSTITIAL CHARGE =     6.965197
:CPC   : PW Pseudocharge     =    17.025984
:CTO001: CHARGE SPHERE  1    =    55.517402

:NEC03: NUCLEAR AND ELECTRONIC CHARGE    118.00000   118.00000

PW CHANGE     H    K    L      Current       Change    Residue
:PTO001:      0    0    0  5.10794148E-02  6.557E-08  1.661E-06
:PTO003:      0    2    0  1.40322662E-02  1.233E-07  8.821E-07
:PTO004:     -1    1    0  6.95873965E-02  3.541E-07  2.365E-06
:PTO005:      0    2   -1 -8.10918931E-02 -3.360E-07 -2.485E-06
:PTO006:      0    0   -2 -4.20105431E-02 -1.786E-07 -1.283E-06
:PTO007:     -1    1   -1 -8.81385328E-02 -3.252E-07 -2.539E-06
:PTO008:      0    2   -2 -1.45381002E-02 -9.257E-08 -7.203E-07
:PTO009:     -1    1   -2 -7.42529669E-02 -3.585E-07 -2.648E-06
:PTO011:     -1    3    0 -1.21645898E-02 -2.146E-08 -1.411E-07
:PTO012:     -1    3   -1 -5.46917284E-02 -3.403E-07 -2.260E-06
:PTO013:      0    4    0 -1.00190087E-02 -5.823E-08 -3.558E-07
:PTO014:      0    2   -3  2.28629146E-02  1.620E-07  8.802E-07

:ENE  : ********** TOTAL ENERGY IN Ry =       -36944.23891573

       TOTAL FORCE IN mRy/a.u. = |F|     Fx             Fy             Fz     with/without FOR in case.in2
:FOR001:   1.ATOM         15.588          0.000          0.000        -15.588 partial forces
       TOTAL FORCE WITH RESPECT TO GLOBAL CARTESIAN COORDINATES:
:FCA001:   1.ATOM                         0.000        -15.588          0.000 partial forces
       TOTAL FORCE WITH RESPECT TO THE GLOBAL COORDINATE SYSTEM:
:FGL001:   1.ATOM                 0.000000000   -15.588302841     0.000000000 partial forces
