
------- case.scf0 --------
 Flat Integration
 New Mode for Coulomb Integral
 Consistent 3/8+Simpson combinations
 Extension of core to zero
 LDM version in phi
 Fifth-order quadrature in outwin


            ---------
:ITE022: 22. ITERATION
            ---------

:NATO :    1 INDEPENDENT AND    1 TOTAL ATOMS IN UNITCELL
       SUBSTANCE: blebleble                                                   

       LATTICE                      = F   
:POT  : POTENTIAL OPTION EX_LDA EC_LDA VX_LDA VC_LDA
:LAT  : LATTICE CONSTANTS=  9.78725  9.78725  9.78725    1.571    1.571    1.571
:VOL  : UNIT CELL VOLUME =     234.38096
       MODE OF CALCULATION IS       = RELA
       NON-SPINPOLARIZED CALCULATION
:IFFT  : FFT-parameters:   80   80   80 Factor: 2.00


   CONVERGENCE PARAMETER FOR PSEUDOCHARGE: NCON=  9
   MAXIMAL VALUE OF RMT(JATOM)*ABSK(NKK) : RK  =29.89674


:VKCOUL :  VK-COUL convergence: 0.206E-06
       ATOMNUMBER=  1 Pr         VCOUL-ZERO =  0.26456E+00
:FIT001: LUSE= 13 SIGMA OF V-XC FIT FOR ATOM  1  0.4324821E-04
:FIT001: LUSE= 13 SIGMA OF V-XC FIT FOR ATOM  1  0.4324821E-04
:DEN  : DENSITY INTEGRAL  =         -7072.86314219   (Ry)
       ELS_POTENTIAL_AT Z=0 and Z=0.5:  -2.51358  -2.51358
       ELS_POTENTIAL_AT Y=0 and Y=0.5:   0.00000   0.00000
:VZERO:v0,v0c,v0x  -3.49383  -2.51358  -0.98025 v5,v5c,v5x  -3.49383  -2.51358  -0.98025
:VZERY:v0,v0c,v0x  -0.72003   0.00000  -0.72003 v5,v5c,v5x  -0.72003   0.00000  -0.72003
:VZERX:v0,v0c,v0x  -0.72003   0.00000  -0.72003 v5,v5c,v5x  -0.72003   0.00000  -0.72003

------- case.scf1 --------
:LMAX-WF:   10   Non-Spherical LMAX:   4

          ATOMIC SPHERE DEPENDENT PARAMETERS FOR ATOM  Pr        
:e__0001: OVERALL ENERGY PARAMETER IS    0.3987
          OVERALL BASIS SET ON ATOM IS LAPW
:E0_0001: E( 0)=    0.3987
             APW+lo
:E0_0001: E( 0)=   -2.0725   E(BOTTOM)=   -2.454   E(TOP)=   -1.691  4  5   174
             LOCAL ORBITAL
:E1_0001: E( 1)=    0.7987
             APW+lo
:E1_0001: E( 1)=   -0.6845   E(BOTTOM)=   -1.331   E(TOP)=   -0.038  3  4   179
             LOCAL ORBITAL
:E3_0001: E( 3)=    0.5969   E(BOTTOM)=    0.455   E(TOP)=    0.738  0  1   119
             APW+lo
:E2_0001: E( 2)=    0.3987   E(BOTTOM)=    0.244   E(TOP)= -200.000  2 -1    86
             APW+lo

       K=   0.00000   0.00000   0.00000            1
:RKM  : MATRIX SIZE   189LOs:  20  RKM= 8.34  WEIGHT= 1.00  PGR:    
       EIGENVALUES ARE:
:EIG00001:      -2.0353068   -0.6623299   -0.6623299   -0.6623299    0.3469863
:EIG00006:       0.5908219    0.6104592    0.6104592    0.6104592    0.6367206
:EIG00011:       0.6367206    0.6367206    0.7311867    0.7311867    0.7311867
:EIG00016:       0.9100358    0.9100358    1.3152219    1.5489117    1.5489117
:EIG00021:       1.5489117    1.6521786    2.3716374    2.3716374    2.3716374
:EIG00026:       2.4659864    2.4659864    2.4659864    2.6568238    2.6568238
:EIG00031:       3.0513894    3.2067481    3.2067481    3.2067481    3.6534891
:EIG00036:       3.6534891    3.8876591    3.8876591    3.8876591    3.9419847
:EIG00041:       3.9419847    3.9419847    4.0431457    4.0431457    4.0431457
:EIG00046:       4.3391448    4.3391448    4.3391448    4.3838527    4.4425343
 
:EIG00051:       4.4425343    4.5476967    4.5476967    4.5476967    4.5750280
:EIG00056:       4.5750280    4.5750280    4.6844044    4.6858175    4.8033894
:EIG00061:       4.8033894    4.8033894    4.9714502    4.9714502    4.9714502
:EIG00066:       5.2758904    6.2379469    6.2516443    6.2516443    6.6238207
:EIG00071:       6.6238207    6.6238207    7.1372592    7.1372592    7.3140565
:EIG00076:       7.3140565    7.3140565    7.3634627    7.3634627    7.3634627
:EIG00081:       7.5964466    7.5964466    7.5964466    7.6115478    7.6115478
:EIG00086:       7.7234614    7.7234614    7.7234614    7.7495651    7.7495651
:EIG00091:       7.7495651    7.8213965    7.8213965    7.8213965    7.8267006
:EIG00096:       7.8267006    7.8267006    7.9268319    7.9618413    8.0885025
 
:EIG00101:       8.0885025
       ********************************************************

:KPT   :      NUMBER OF K-POINTS:   165

------- case.scfso --------
   0.0   0.0 angle (M,z), angle (M,x) deg
 
        SPIN-ORBIT EIGENVALUES:
     K=   0.00000   0.00000   0.00000            1
      MATRIX SIZE=  202   WEIGHT= 1.00
     EIGENVALUES ARE:
          -2.0353068   -2.0353068   -0.8103866   -0.8103866   -0.5929115
          -0.5929115   -0.5929115   -0.5929115    0.3469863    0.3469863
           0.5867973    0.5867973    0.5998687    0.5998687    0.5998687
           0.5998687    0.6220870    0.6220870    0.6364741    0.6364741
           0.6435384    0.6435384    0.6435384    0.6435384    0.7273694
           0.7273694    0.7273694    0.7273694    0.7376900    0.7376900
           0.9104083    0.9104083    0.9104083    0.9104083    1.3152788
           1.3152788    1.5442054    1.5442054    1.5510880    1.5510880

           1.5510880    1.5510880    1.6521786    1.6521786    2.3665839
           2.3665839    2.3665839    2.3665839    2.3812393    2.3812393
           2.3916359    2.3916359    2.5040086    2.5040086    2.5040086
           2.5040086    2.6571145    2.6571145    2.6571145    2.6571145
           3.0513894    3.0513894    3.2063238    3.2063238    3.2069728
           3.2069728    3.2069728    3.2069728    3.6534588    3.6534588
           3.6534588    3.6534588    3.8862739    3.8862739    3.8862739
           3.8862739    3.8907069    3.8907069    3.9085136    3.9085136

           3.9603770    3.9603770    3.9603770    3.9603770    4.0431365
           4.0431365    4.0431503    4.0431503    4.0431503    4.0431503
           4.3390878    4.3390878    4.3390878    4.3390878    4.3392663
           4.3392663    4.3838527    4.3838527    4.4425343    4.4425343
           4.4425343    4.4425343
       ********************************************************

------- case.scf2 --------
:GMA  : POTENTIAL AND CHARGE CUT-OFF  12.00 Ry**.5




:POS001: at.nr.   1 position = 0.00000 0.00000 0.50000  multiplicity =  1

       lmmax  5
       lm=   0 0  4 0  4 4  6 0  6 4
:FER gutzwiller fermi energy   0.61341
:EORB         -0.077041942
:SUM sum of gutz band energies         -5.430193398

:CHA001: total charge inside sphere   1 =    10.140446
:PCS001: partial charges sphere =  1 s,p,d,f,      d-eg,d-t2g 
:QTL001: 2.0323 5.3552 0.6812 2.0714 0.0000 0.0000 0.0000 0.2453 0.4359 0.0000 0.0000 0.0000

:CHA  : total charge inside unit cell =       6.499997

------- case.scfc --------

        1.ATOM      Pr                   14 CORE STATES
:1S 001: 1S               -3066.999677648 Ry
:2S 001: 2S                -492.751839831 Ry
:2PP001: 2P*               -465.851180221 Ry
:2P 001: 2P                -430.453617203 Ry
:3S 001: 3S                -105.839863070 Ry
:3PP001: 3P*                -94.377820773 Ry
:3P 001: 3P                 -87.369867708 Ry
:3DD001: 3D*                -67.297210157 Ry
:3D 001: 3D                 -65.785606003 Ry
:4S 001: 4S                 -20.515570837 Ry
:4PP001: 4P*                -16.222378395 Ry
:4P 001: 4P                 -14.694965692 Ry
:4DD001: 4D*                 -7.627960590 Ry
:4D 001: 4D                  -7.358557438 Ry

------- case.scfm --------
:CINT001 Core Integral Atom   1   45.999518

       DENSITY AT NUCLEUS
        JATOM        VALENCE       SEMI-CORE          CORE           TOTAL
:RTO001:   1      651.913602        0.000000   656825.022557   657476.936159
 :WARNING: K-list has changed
     
       CHARGES OF NEW CHARGE DENSITY
:NTO   : INTERSTITIAL CHARGE =     2.859513
:NPC   : PW Pseudocharge     =     7.642941
:NTO001: CHARGE SPHERE  1    =    56.139963

:NEC01: NUCLEAR AND ELECTRONIC CHARGE     59.00000    58.99948
     
       CHARGES OF OLD CHARGE DENSITY
:OTO   : INTERSTITIAL CHARGE =     2.896191
:OPC   : PW Pseudocharge     =     7.653157
:OTO001: CHARGE SPHERE  1    =    56.103809

:NEC02: NUCLEAR AND ELECTRONIC CHARGE     59.00000    59.00000
     
       CONVERGENCE TEST
:DTO001: DIFFERENCE IN SPHERE  1 =  0.0667229

:DIS  :  CHARGE DISTANCE       ( 0.0667229 for atom    1 spin 1)      0.0667229
 PW Mixed is           53
 
******************************************************
* MULTISECANT MIXING VER9 RELEASE 10.4.0              *
* Standard Mode with controls                        *
* Fixed density scale                                *
* Regularization       1.000E-04                     *
* Trust Upper Limit    5.000E+00                     *
* Max Number of Memory Steps    8                    *
******************************************************
 
:PWTMP   1.6893E+02  1.2500E+02  2.3438E+02
:PLANE:  PW TOTAL      3.0690 DISTAN   1.60E-02  5.23E-01 %
:CHARG:  CLM/ATOM    977.1866 DISTAN   4.36E-01  4.47E-02 %
 
Step History
        DMIX         DMIXT        Red     Pred      Trust     Lambda    MagRel    MagAbs     Beta
  1   3.5000E-02   3.5000E-02 -1.00E+00  1.00E+00 -1.00E+01  1.00E+00  3.50E-02  3.50E-02  1.00E+00
:INFO :  Note, Pratt in use
:TRUST:  Step 3.75E-02  Charge 7.50E-02 (e) CTO  2.50E-01 (e) PW  3.50E-01 (e)
:DIRM :  MEMORY  0/ 8 SCALE   1.000
Performing Pseudo Compensation
Final Pseudo Compensation Rescaling     1.00000E+00
:MIX  :   PRATT  REGULARIZATION:  1.00E-04 GREED: 0.02500                  
     
       CHARGES OF MIXED CHARGE DENSITY
:CTO   : INTERSTITIAL CHARGE =     2.895287
:CPC   : PW Pseudocharge     =     7.648369
:CTO001: CHARGE SPHERE  1    =    56.104713

:NEC03: NUCLEAR AND ELECTRONIC CHARGE     59.00000    59.00000

PW CHANGE     H    K    L      Current       Change    Residue
:PTO001:      0    0    0  4.49851238E-02 -2.428E-05 -1.919E-04
:PTO002:     -1   -1   -1 -1.36501189E-01  1.372E-04  7.697E-05
:PTO003:      0    0   -2  8.02175309E-02 -9.240E-05  2.021E-04
:PTO004:      0   -2   -2  6.65319341E-02 -1.836E-04 -5.305E-04
:PTO005:     -1   -1   -3 -5.98256181E-02  3.193E-04  2.633E-04
:PTO006:     -2   -2   -2  1.48615663E-02 -9.602E-05  2.153E-04
:PTO007:      0    0   -4  1.83939534E-03 -6.582E-05  8.215E-05
:PTO008:     -1   -3   -3  7.32751869E-04  2.641E-04  6.812E-04
:PTO009:      0   -2   -4 -3.31699419E-03 -2.581E-04 -7.709E-04
:PTO010:     -2   -2   -4 -7.72712074E-03 -2.066E-04 -4.664E-05
:PTO011:     -3   -3   -3  2.84259708E-03  5.445E-05 -2.260E-04
:PTO012:     -1   -1   -5  8.34991825E-03  1.809E-04  2.484E-05

:ENE  : ********** TOTAL ENERGY IN Ry =       -18472.12650513


------- case.scf0 --------
 Flat Integration
 New Mode for Coulomb Integral
 Consistent 3/8+Simpson combinations
 Extension of core to zero
 LDM version in phi
 Fifth-order quadrature in outwin


            ---------
:ITE023: 23. ITERATION
            ---------

:NATO :    1 INDEPENDENT AND    1 TOTAL ATOMS IN UNITCELL
       SUBSTANCE: blebleble                                                   

       LATTICE                      = F   
:POT  : POTENTIAL OPTION EX_LDA EC_LDA VX_LDA VC_LDA
:LAT  : LATTICE CONSTANTS=  9.78725  9.78725  9.78725    1.571    1.571    1.571
:VOL  : UNIT CELL VOLUME =     234.38096
       MODE OF CALCULATION IS       = RELA
       NON-SPINPOLARIZED CALCULATION
:IFFT  : FFT-parameters:   80   80   80 Factor: 2.00


   CONVERGENCE PARAMETER FOR PSEUDOCHARGE: NCON=  9
   MAXIMAL VALUE OF RMT(JATOM)*ABSK(NKK) : RK  =29.89674


:VKCOUL :  VK-COUL convergence: 0.202E-06
       ATOMNUMBER=  1 Pr         VCOUL-ZERO =  0.26456E+00
:FIT001: LUSE= 13 SIGMA OF V-XC FIT FOR ATOM  1  0.4226423E-04
:FIT001: LUSE= 13 SIGMA OF V-XC FIT FOR ATOM  1  0.4226423E-04
:DEN  : DENSITY INTEGRAL  =         -7072.96717088   (Ry)
       ELS_POTENTIAL_AT Z=0 and Z=0.5:  -2.51326  -2.51326
       ELS_POTENTIAL_AT Y=0 and Y=0.5:   0.00000   0.00000
:VZERO:v0,v0c,v0x  -3.49327  -2.51326  -0.98001 v5,v5c,v5x  -3.49327  -2.51326  -0.98001
:VZERY:v0,v0c,v0x  -0.71995   0.00000  -0.71995 v5,v5c,v5x  -0.71995   0.00000  -0.71995
:VZERX:v0,v0c,v0x  -0.71995   0.00000  -0.71995 v5,v5c,v5x  -0.71995   0.00000  -0.71995

------- case.scf1 --------
:LMAX-WF:   10   Non-Spherical LMAX:   4

          ATOMIC SPHERE DEPENDENT PARAMETERS FOR ATOM  Pr        
:e__0001: OVERALL ENERGY PARAMETER IS    0.3987
          OVERALL BASIS SET ON ATOM IS LAPW
:E0_0001: E( 0)=    0.3987
             APW+lo
:E0_0001: E( 0)=   -2.0718   E(BOTTOM)=   -2.453   E(TOP)=   -1.691  4  5   178
             LOCAL ORBITAL
:E1_0001: E( 1)=    0.7987
             APW+lo
:E1_0001: E( 1)=   -0.6839   E(BOTTOM)=   -1.331   E(TOP)=   -0.037  3  4   177
             LOCAL ORBITAL
:E3_0001: E( 3)=    0.5982   E(BOTTOM)=    0.456   E(TOP)=    0.740  0  1   114
             APW+lo
:E2_0001: E( 2)=    0.3987   E(BOTTOM)=    0.244   E(TOP)= -200.000  2 -1    87
             APW+lo

       K=   0.00000   0.00000   0.00000            1
:RKM  : MATRIX SIZE   189LOs:  20  RKM= 8.34  WEIGHT= 1.00  PGR:    
       EIGENVALUES ARE:
:EIG00001:      -2.0346489   -0.6618018   -0.6618018   -0.6618018    0.3470188
:EIG00006:       0.5919169    0.6116342    0.6116342    0.6116342    0.6379819
:EIG00011:       0.6379819    0.6379819    0.7313423    0.7313423    0.7313423
:EIG00016:       0.9102659    0.9102659    1.3153721    1.5489952    1.5489952
:EIG00021:       1.5489952    1.6521011    2.3718599    2.3718599    2.3718599
:EIG00026:       2.4661605    2.4661605    2.4661605    2.6569512    2.6569512
:EIG00031:       3.0514855    3.2067846    3.2067846    3.2067846    3.6536253
:EIG00036:       3.6536253    3.8877576    3.8877576    3.8877576    3.9420188
:EIG00041:       3.9420188    3.9420188    4.0432053    4.0432053    4.0432053
:EIG00046:       4.3391172    4.3391172    4.3391172    4.3839394    4.4424874
 
:EIG00051:       4.4424874    4.5476575    4.5476575    4.5476575    4.5750003
:EIG00056:       4.5750003    4.5750003    4.6844573    4.6857411    4.8033268
:EIG00061:       4.8033268    4.8033268    4.9713946    4.9713946    4.9713946
:EIG00066:       5.2758247    6.2379808    6.2516857    6.2516857    6.6238241
:EIG00071:       6.6238241    6.6238241    7.1374498    7.1374498    7.3141976
:EIG00076:       7.3141976    7.3141976    7.3635995    7.3635995    7.3635995
:EIG00081:       7.5964524    7.5964524    7.5964524    7.6115336    7.6115336
:EIG00086:       7.7234813    7.7234813    7.7234813    7.7496564    7.7496564
:EIG00091:       7.7496564    7.8214104    7.8214104    7.8214104    7.8267473
:EIG00096:       7.8267473    7.8267473    7.9268148    7.9618316    8.0884829
 
:EIG00101:       8.0884829
       ********************************************************

:KPT   :      NUMBER OF K-POINTS:   165

------- case.scfso --------
   0.0   0.0 angle (M,z), angle (M,x) deg
 
        SPIN-ORBIT EIGENVALUES:
     K=   0.00000   0.00000   0.00000            1
      MATRIX SIZE=  202   WEIGHT= 1.00
     EIGENVALUES ARE:
          -2.0346489   -2.0346489   -0.8098284   -0.8098284   -0.5923980
          -0.5923980   -0.5923980   -0.5923980    0.3470188    0.3470188
           0.5879106    0.5879106    0.6010603    0.6010603    0.6010603
           0.6010603    0.6232545    0.6232545    0.6377184    0.6377184
           0.6447859    0.6447859    0.6447859    0.6447859    0.7275271
           0.7275271    0.7275271    0.7275271    0.7378425    0.7378425
           0.9106379    0.9106379    0.9106379    0.9106379    1.3154292
           1.3154292    1.5442932    1.5442932    1.5511696    1.5511696

           1.5511696    1.5511696    1.6521011    1.6521011    2.3668067
           2.3668067    2.3668067    2.3668067    2.3814609    2.3814609
           2.3918130    2.3918130    2.5041805    2.5041805    2.5041806
           2.5041806    2.6572418    2.6572418    2.6572418    2.6572418
           3.0514855    3.0514855    3.2063599    3.2063599    3.2070095
           3.2070095    3.2070095    3.2070095    3.6535950    3.6535950
           3.6535950    3.6535950    3.8863721    3.8863721    3.8863721
           3.8863721    3.8908059    3.8908059    3.9085415    3.9085415

           3.9604145    3.9604145    3.9604145    3.9604145    4.0431961
           4.0431961    4.0432099    4.0432099    4.0432099    4.0432099
           4.3390602    4.3390602    4.3390602    4.3390602    4.3392386
           4.3392386    4.3839394    4.3839394    4.4424874    4.4424874
           4.4424874    4.4424874
       ********************************************************

------- case.scf2 --------
:GMA  : POTENTIAL AND CHARGE CUT-OFF  12.00 Ry**.5




:POS001: at.nr.   1 position = 0.00000 0.00000 0.50000  multiplicity =  1

       lmmax  5
       lm=   0 0  4 0  4 4  6 0  6 4
:FER gutzwiller fermi energy   0.61397
:EORB         -0.075671640
:SUM sum of gutz band energies         -5.424141946

:CHA001: total charge inside sphere   1 =    10.134913
:PCS001: partial charges sphere =  1 s,p,d,f,      d-eg,d-t2g 
:QTL001: 2.0323 5.3552 0.6836 2.0634 0.0000 0.0000 0.0000 0.2460 0.4376 0.0000 0.0000 0.0000

:CHA  : total charge inside unit cell =       6.500002

------- case.scfc --------

        1.ATOM      Pr                   14 CORE STATES
:1S 001: 1S               -3066.997178569 Ry
:2S 001: 2S                -492.749372178 Ry
:2PP001: 2P*               -465.848704872 Ry
:2P 001: 2P                -430.451144756 Ry
:3S 001: 3S                -105.837529815 Ry
:3PP001: 3P*                -94.375478096 Ry
:3P 001: 3P                 -87.367538750 Ry
:3DD001: 3D*                -67.294852084 Ry
:3D 001: 3D                 -65.783251795 Ry
:4S 001: 4S                 -20.513791308 Ry
:4PP001: 4P*                -16.220629115 Ry
:4P 001: 4P                 -14.693264815 Ry
:4DD001: 4D*                 -7.626341762 Ry
:4D 001: 4D                  -7.356954843 Ry

------- case.scfm --------
:CINT001 Core Integral Atom   1   45.999517

       DENSITY AT NUCLEUS
        JATOM        VALENCE       SEMI-CORE          CORE           TOTAL
:RTO001:   1      651.844967        0.000000   656824.903766   657476.748733
     
       CHARGES OF NEW CHARGE DENSITY
:NTO   : INTERSTITIAL CHARGE =     2.865115
:NPC   : PW Pseudocharge     =     7.645217
:NTO001: CHARGE SPHERE  1    =    56.134430

:NEC01: NUCLEAR AND ELECTRONIC CHARGE     59.00000    58.99954
     
       CHARGES OF OLD CHARGE DENSITY
:OTO   : INTERSTITIAL CHARGE =     2.895287
:OPC   : PW Pseudocharge     =     7.648369
:OTO001: CHARGE SPHERE  1    =    56.104713

:NEC02: NUCLEAR AND ELECTRONIC CHARGE     59.00000    59.00000
     
       CONVERGENCE TEST
:DTO001: DIFFERENCE IN SPHERE  1 =  0.0549678

:DIS  :  CHARGE DISTANCE       ( 0.0549678 for atom    1 spin 1)      0.0549678
 PW Mixed is           53
 
******************************************************
* MULTISECANT MIXING VER9 RELEASE 10.4.0              *
* Slow Mode, cautious                                *
* Fixed density scale                                *
* Regularization       1.000E-04                     *
* Step Trust Radius    0.75000                       *
* Trust Upper Limit    2.000E+00                     *
* Max Number of Memory Steps   12                    *
******************************************************
 
:PWTMP   1.6893E+02  1.2500E+02  2.3438E+02
:PLANE:  PW TOTAL      3.0658 DISTAN   1.36E-02  4.44E-01 %
:CHARG:  CLM/ATOM    977.1868 DISTAN   4.26E-01  4.35E-02 %
 
Step History
        DMIX         DMIXT        Red     Pred      Trust     Lambda    MagRel    MagAbs     Beta
  1   3.5000E-02   3.5000E-02 -1.00E+00  1.00E+00 -1.00E+01  1.00E+00  3.50E-02  3.50E-02  1.00E+00
  2   2.5000E-02   2.5000E-02 -1.00E+00  1.00E+00 -1.00E+01  1.00E+00  2.50E-02  1.09E-02  1.00E+00
:JACOBIANS    7.541E-02   2.233E-01
  
:TRUST:  Step 3.20E-02  Charge 7.50E-02 (e) CTO  2.50E-01 (e) PW  3.50E-01 (e)
:DIRM :  MEMORY  1/12 SCALE   1.000
:MIX  :   PRATT  REGULARIZATION:  1.00E-04 GREED: 0.03199  Expand 1.28  0.0320                
     
       CHARGES OF MIXED CHARGE DENSITY
:CTO   : INTERSTITIAL CHARGE =     2.879857
:CPC   : PW Pseudocharge     =     7.566630
:CTO001: CHARGE SPHERE  1    =    56.120143

:NEC03: NUCLEAR AND ELECTRONIC CHARGE     59.00000    59.00000

PW CHANGE     H    K    L      Current       Change    Residue
:PTO001:      0    0    0  4.45705444E-02 -4.146E-04 -1.351E-04
:PTO002:     -1   -1   -1 -1.34158873E-01  2.342E-03 -5.844E-05
:PTO003:      0    0   -2  7.86401121E-02 -1.577E-03  2.882E-04
:PTO004:      0   -2   -2  6.33971934E-02 -3.135E-03 -3.489E-04
:PTO005:     -1   -1   -3 -5.43738893E-02  5.452E-03 -3.914E-05
:PTO006:     -2   -2   -2  1.32222282E-02 -1.639E-03  3.105E-04
:PTO007:      0    0   -4  7.15739419E-04 -1.124E-03  1.439E-04
:PTO008:     -1   -3   -3  5.24140333E-03  4.509E-03  4.240E-04
:PTO009:      0   -2   -4 -7.72337412E-03 -4.406E-03 -5.233E-04
:PTO010:     -2   -2   -4 -1.12545695E-02 -3.527E-03  1.573E-04
:PTO011:     -3   -3   -3  3.77222492E-03  9.296E-04 -2.814E-04
:PTO012:     -1   -1   -5  1.14387178E-02  3.089E-03 -1.519E-04

:ENE  : ********** TOTAL ENERGY IN Ry =       -18472.12616087


------- case.scf0 --------
 Flat Integration
 New Mode for Coulomb Integral
 Consistent 3/8+Simpson combinations
 Extension of core to zero
 LDM version in phi
 Fifth-order quadrature in outwin


            ---------
:ITE024: 24. ITERATION
            ---------

:NATO :    1 INDEPENDENT AND    1 TOTAL ATOMS IN UNITCELL
       SUBSTANCE: blebleble                                                   

       LATTICE                      = F   
:POT  : POTENTIAL OPTION EX_LDA EC_LDA VX_LDA VC_LDA
:LAT  : LATTICE CONSTANTS=  9.78725  9.78725  9.78725    1.571    1.571    1.571
:VOL  : UNIT CELL VOLUME =     234.38096
       MODE OF CALCULATION IS       = RELA
       NON-SPINPOLARIZED CALCULATION
:IFFT  : FFT-parameters:   80   80   80 Factor: 2.00


   CONVERGENCE PARAMETER FOR PSEUDOCHARGE: NCON=  9
   MAXIMAL VALUE OF RMT(JATOM)*ABSK(NKK) : RK  =29.89674


:VKCOUL :  VK-COUL convergence: 0.125E-06
       ATOMNUMBER=  1 Pr         VCOUL-ZERO =  0.26445E+00
:FIT001: LUSE= 13 SIGMA OF V-XC FIT FOR ATOM  1  0.2754681E-04
:FIT001: LUSE= 13 SIGMA OF V-XC FIT FOR ATOM  1  0.2754681E-04
:DEN  : DENSITY INTEGRAL  =         -7074.74367989   (Ry)
       ELS_POTENTIAL_AT Z=0 and Z=0.5:  -2.50774  -2.50774
       ELS_POTENTIAL_AT Y=0 and Y=0.5:   0.00000   0.00000
:VZERO:v0,v0c,v0x  -3.48349  -2.50774  -0.97575 v5,v5c,v5x  -3.48349  -2.50774  -0.97575
:VZERY:v0,v0c,v0x  -0.71859   0.00000  -0.71859 v5,v5c,v5x  -0.71859   0.00000  -0.71859
:VZERX:v0,v0c,v0x  -0.71859   0.00000  -0.71859 v5,v5c,v5x  -0.71859   0.00000  -0.71859

------- case.scf1 --------
:LMAX-WF:   10   Non-Spherical LMAX:   4

          ATOMIC SPHERE DEPENDENT PARAMETERS FOR ATOM  Pr        
:e__0001: OVERALL ENERGY PARAMETER IS    0.3987
          OVERALL BASIS SET ON ATOM IS LAPW
:E0_0001: E( 0)=    0.3987
             APW+lo
:E0_0001: E( 0)=   -2.0603   E(BOTTOM)=   -2.443   E(TOP)=   -1.677  4  5   172
             LOCAL ORBITAL
:E1_0001: E( 1)=    0.7987
             APW+lo
:E1_0001: E( 1)=   -0.6741   E(BOTTOM)=   -1.323   E(TOP)=   -0.025  3  4   175
             LOCAL ORBITAL
:E3_0001: E( 3)=    0.6189   E(BOTTOM)=    0.475   E(TOP)=    0.763  0  1   121
             APW+lo
:E2_0001: E( 2)=    0.3987   E(BOTTOM)=    0.250   E(TOP)= -200.000  2 -1    92
             APW+lo

       K=   0.00000   0.00000   0.00000            1
:RKM  : MATRIX SIZE   189LOs:  20  RKM= 8.34  WEIGHT= 1.00  PGR:    
       EIGENVALUES ARE:
:EIG00001:      -2.0234211   -0.6527925   -0.6527925   -0.6527925    0.3475793
:EIG00006:       0.6104980    0.6316243    0.6316243    0.6316243    0.6594877
:EIG00011:       0.6594877    0.6594877    0.7339884    0.7339884    0.7339884
:EIG00016:       0.9141839    0.9141839    1.3180489    1.5504761    1.5504761
:EIG00021:       1.5504761    1.6507829    2.3756646    2.3756646    2.3756646
:EIG00026:       2.4691409    2.4691409    2.4691409    2.6591259    2.6591259
:EIG00031:       3.0531298    3.2074403    3.2074403    3.2074403    3.6559584
:EIG00036:       3.6559584    3.8894459    3.8894459    3.8894459    3.9426086
:EIG00041:       3.9426086    3.9426086    4.0442229    4.0442229    4.0442229
:EIG00046:       4.3386482    4.3386482    4.3386482    4.3854245    4.4416919
 
:EIG00051:       4.4416919    4.5470041    4.5470041    4.5470041    4.5745432
:EIG00056:       4.5745432    4.5745432    4.6844563    4.6853690    4.8022624
:EIG00061:       4.8022624    4.8022624    4.9704654    4.9704654    4.9704654
:EIG00066:       5.2747366    6.2385631    6.2523941    6.2523941    6.6238896
:EIG00071:       6.6238896    6.6238896    7.1407012    7.1407012    7.3166015
:EIG00076:       7.3166015    7.3166015    7.3659363    7.3659363    7.3659363
:EIG00081:       7.5965533    7.5965533    7.5965533    7.6112939    7.6112939
:EIG00086:       7.7238292    7.7238292    7.7238292    7.7512202    7.7512202
:EIG00091:       7.7512202    7.8216501    7.8216501    7.8216501    7.8275486
:EIG00096:       7.8275486    7.8275486    7.9265260    7.9616670    8.0881442
 
:EIG00101:       8.0881442
       ********************************************************

:KPT   :      NUMBER OF K-POINTS:   165

------- case.scfso --------
   0.0   0.0 angle (M,z), angle (M,x) deg
 
        SPIN-ORBIT EIGENVALUES:
     K=   0.00000   0.00000   0.00000            1
      MATRIX SIZE=  202   WEIGHT= 1.00
     EIGENVALUES ARE:
          -2.0234211   -2.0234211   -0.8003048   -0.8003048   -0.5836367
          -0.5836367   -0.5836367   -0.5836367    0.3475793    0.3475793
           0.6067941    0.6067941    0.6213339    0.6213339    0.6213339
           0.6213339    0.6431141    0.6431141    0.6589432    0.6589432
           0.6660580    0.6660580    0.6660580    0.6660580    0.7302099
           0.7302099    0.7302099    0.7302099    0.7404368    0.7404368
           0.9145466    0.9145466    0.9145466    0.9145466    1.3181100
           1.3181100    1.5458476    1.5458476    1.5526169    1.5526169

           1.5526169    1.5526169    1.6507829    1.6507829    2.3706169
           2.3706169    2.3706169    2.3706169    2.3852517    2.3852517
           2.3948454    2.3948454    2.5071238    2.5071238    2.5071238
           2.5071238    2.6594166    2.6594166    2.6594166    2.6594166
           3.0531298    3.0531298    3.2070095    3.2070095    3.2076685
           3.2076685    3.2076685    3.2076685    3.6559274    3.6559274
           3.6559274    3.6559274    3.8880567    3.8880567    3.8880567
           3.8880567    3.8925034    3.8925034    3.9090253    3.9090253

           3.9610634    3.9610634    3.9610634    3.9610634    4.0442138
           4.0442138    4.0442275    4.0442275    4.0442275    4.0442275
           4.3385916    4.3385916    4.3385916    4.3385916    4.3387688
           4.3387688    4.3854245    4.3854245    4.4416919    4.4416919
           4.4416919    4.4416919
       ********************************************************

------- case.scf2 --------
:GMA  : POTENTIAL AND CHARGE CUT-OFF  12.00 Ry**.5




:POS001: at.nr.   1 position = 0.00000 0.00000 0.50000  multiplicity =  1

       lmmax  5
       lm=   0 0  4 0  4 4  6 0  6 4
:FER gutzwiller fermi energy   0.61880
:EORB         -0.043958187
:SUM sum of gutz band energies         -5.334064494

:CHA001: total charge inside sphere   1 =    10.089641
:PCS001: partial charges sphere =  1 s,p,d,f,      d-eg,d-t2g 
:QTL001: 2.0320 5.3515 0.6961 2.0096 0.0000 0.0000 0.0000 0.2499 0.4462 0.0000 0.0000 0.0000

:CHA  : total charge inside unit cell =       6.500000

------- case.scfc --------

        1.ATOM      Pr                   14 CORE STATES
:1S 001: 1S               -3066.954514248 Ry
:2S 001: 2S                -492.707244347 Ry
:2PP001: 2P*               -465.806445667 Ry
:2P 001: 2P                -430.408935085 Ry
:3S 001: 3S                -105.797695346 Ry
:3PP001: 3P*                -94.335482901 Ry
:3P 001: 3P                 -87.327777567 Ry
:3DD001: 3D*                -67.254594218 Ry
:3D 001: 3D                 -65.743059858 Ry
:4S 001: 4S                 -20.483404817 Ry
:4PP001: 4P*                -16.190759261 Ry
:4P 001: 4P                 -14.664221212 Ry
:4DD001: 4D*                 -7.598700629 Ry
:4D 001: 4D                  -7.329590920 Ry

------- case.scfm --------
:CINT001 Core Integral Atom   1   45.999510

       DENSITY AT NUCLEUS
        JATOM        VALENCE       SEMI-CORE          CORE           TOTAL
:RTO001:   1      650.384121        0.000000   656822.876452   657473.260573
     
       CHARGES OF NEW CHARGE DENSITY
:NTO   : INTERSTITIAL CHARGE =     2.910463
:NPC   : PW Pseudocharge     =     7.665012
:NTO001: CHARGE SPHERE  1    =    56.089151

:NEC01: NUCLEAR AND ELECTRONIC CHARGE     59.00000    58.99961
     
       CHARGES OF OLD CHARGE DENSITY
:OTO   : INTERSTITIAL CHARGE =     2.879857
:OPC   : PW Pseudocharge     =     7.566630
:OTO001: CHARGE SPHERE  1    =    56.120143

:NEC02: NUCLEAR AND ELECTRONIC CHARGE     59.00000    59.00000
     
       CONVERGENCE TEST
:DTO001: DIFFERENCE IN SPHERE  1 =  0.0652872

:DIS  :  CHARGE DISTANCE       ( 0.0652872 for atom    1 spin 1)      0.0652872
 PW Mixed is           53
 
******************************************************
* MULTISECANT MIXING VER9 RELEASE 10.4.0              *
* Slow Mode, cautious                                *
* Fixed density scale                                *
* Regularization       1.000E-04                     *
* Step Trust Radius    0.75000                       *
* Trust Upper Limit    2.000E+00                     *
* Max Number of Memory Steps   12                    *
******************************************************
 
:PWTMP   1.6893E+02  1.2500E+02  2.3438E+02
:PLANE:  PW TOTAL      3.0116 DISTAN   1.08E-01  3.60E+00 %
:CHARG:  CLM/ATOM    977.1906 DISTAN   2.59E-01  2.65E-02 %
 
Step History
        DMIX         DMIXT        Red     Pred      Trust     Lambda    MagRel    MagAbs     Beta
  1   3.5000E-02   3.5000E-02 -1.00E+00  1.00E+00 -1.00E+01  1.00E+00  3.50E-02  3.50E-02  1.00E+00
  2   2.5000E-02   2.5000E-02  9.75E-01  1.00E+00 -1.00E+01  1.00E+00  2.50E-02  1.09E-02  1.00E+00
  3   3.1988E-02   3.1988E-02 -1.00E+00  1.00E+00 -1.00E+01  1.00E+00  3.20E-02  1.36E-02  1.00E+00
:JACOBIANS    1.506E-01   4.457E-01
  
:NORMS:  1/Froebius, Min, Max, Used   0.9106E+00  0.4851E+00  0.9701E+00  0.9106E+00
:INFO :  Number of Memory Steps    2 Skipping    0
:INFO :  SLambda=    0.7087376235  Max    0.7087376235
:PREDicted Charge, CTotal, PW Trust    2.534E-02   2.534E-02   8.512E-02
:PREDicted DMix, Beta, BLim   6.6831E-01  1.5559E+00  8.0749E-01

Eigenvalues, unscaled except for SY+YY
   #     SY Real        SY Imag          SS             YY         SY+YY Real      SY+YY Imag
   1   1.332268E-15   0.000000E+00   1.658291E+00   1.999822E+00   1.885043E-04   0.000000E+00
   2   1.667286E+00   0.000000E+00  -1.110223E-16   1.777065E-04   3.181480E+00   0.000000E+00
 
:INFO :  Singular value  3.181E+00 Weight  1.000E+00 Projection -8.701E-02
:INFO :  Singular value  1.885E-04 Weight  4.705E-01 Projection  5.090E+00
:RANK :  ACTIVE   1.47/2  =  73.52 % ; YY RANK   1.44/2  =  72.06 %
 
:BLIM :  VZERO Control Off
:TRUST:  Step 2.84E-01  Charge 7.50E-02 (e) CTO  2.50E-01 (e) PW  3.50E-01 (e)
:DTRUS:  Lambda    4.050E+00 Increment    7.276E-12 Iterations   125 DMIX    4.869E-02
:INFOA:  Angle SubSpace to MSR1      0.00
:DIRM :  MEMORY  2/12 SCALE   1.000 RED  0.66 PRED  1.00 NEXT  0.85 
:INFO :  Limited by Atoms F by Step T

:TRAVE:  Charge 4.29E-03 (e) CTO  4.29E-03 (e) PW  1.42E-02 (e)
:DIRP :  |MSR1|= 3.075E-02 |PRATT|= 1.084E-01 ANGLE= 171.4 DEGREES
:DIRQ :  |MSR1|= 7.355E-02 |PRATT|= 2.591E-01 ANGLE=  19.9 DEGREES
:DIRT :  |MSR1|= 7.972E-02 |PRATT|= 2.809E-01 ANGLE=  49.2 DEGREES
:MIX  :   MSD1   REGULARIZATION:  2.00E-04 GREED: 0.07997  LMStep 0.61  0.2838 Step           
     
       CHARGES OF MIXED CHARGE DENSITY
:CTO   : INTERSTITIAL CHARGE =     2.875572
:CPC   : PW Pseudocharge     =     7.544243
:CTO001: CHARGE SPHERE  1    =    56.124428

:NEC03: NUCLEAR AND ELECTRONIC CHARGE     59.00000    59.00000

PW CHANGE     H    K    L      Current       Change    Residue
:PTO001:      0    0    0  4.44567461E-02 -1.138E-04  5.563E-04
:PTO002:     -1   -1   -1 -1.33501227E-01  6.576E-04 -2.418E-03
:PTO003:      0    0   -2  7.82083543E-02 -4.318E-04  1.839E-03
:PTO004:      0   -2   -2  6.24877084E-02 -9.095E-04  2.739E-03
:PTO005:     -1   -1   -3 -5.28222928E-02  1.552E-03 -5.320E-03
:PTO006:     -2   -2   -2  1.27697950E-02 -4.524E-04  1.920E-03
:PTO007:      0    0   -4  4.03644009E-04 -3.121E-04  1.238E-03
:PTO008:     -1   -3   -3  6.54175358E-03  1.300E-03 -4.027E-03
:PTO009:      0   -2   -4 -8.99869066E-03 -1.275E-03  3.812E-03
:PTO010:     -2   -2   -4 -1.22456426E-02 -9.911E-04  3.677E-03
:PTO011:     -3   -3   -3  4.02132392E-03  2.491E-04 -1.223E-03
:PTO012:     -1   -1   -5  1.23049699E-02  8.663E-04 -3.231E-03

:ENE  : ********** TOTAL ENERGY IN Ry =       -18472.12561526


------- case.scf0 --------
 Flat Integration
 New Mode for Coulomb Integral
 Consistent 3/8+Simpson combinations
 Extension of core to zero
 LDM version in phi
 Fifth-order quadrature in outwin


            ---------
:ITE025: 25. ITERATION
            ---------

:NATO :    1 INDEPENDENT AND    1 TOTAL ATOMS IN UNITCELL
       SUBSTANCE: blebleble                                                   

       LATTICE                      = F   
:POT  : POTENTIAL OPTION EX_LDA EC_LDA VX_LDA VC_LDA
:LAT  : LATTICE CONSTANTS=  9.78725  9.78725  9.78725    1.571    1.571    1.571
:VOL  : UNIT CELL VOLUME =     234.38096
       MODE OF CALCULATION IS       = RELA
       NON-SPINPOLARIZED CALCULATION
:IFFT  : FFT-parameters:   80   80   80 Factor: 2.00


   CONVERGENCE PARAMETER FOR PSEUDOCHARGE: NCON=  9
   MAXIMAL VALUE OF RMT(JATOM)*ABSK(NKK) : RK  =29.89674


:VKCOUL :  VK-COUL convergence: 0.935E-07
       ATOMNUMBER=  1 Pr         VCOUL-ZERO =  0.26447E+00
:FIT001: LUSE= 13 SIGMA OF V-XC FIT FOR ATOM  1  0.2288492E-04
:FIT001: LUSE= 13 SIGMA OF V-XC FIT FOR ATOM  1  0.2288492E-04
:DEN  : DENSITY INTEGRAL  =         -7075.18745144   (Ry)
       ELS_POTENTIAL_AT Z=0 and Z=0.5:  -2.50620  -2.50620
       ELS_POTENTIAL_AT Y=0 and Y=0.5:   0.00000   0.00000
:VZERO:v0,v0c,v0x  -3.48091  -2.50620  -0.97472 v5,v5c,v5x  -3.48091  -2.50620  -0.97472
:VZERY:v0,v0c,v0x  -0.71821   0.00000  -0.71821 v5,v5c,v5x  -0.71821   0.00000  -0.71821
:VZERX:v0,v0c,v0x  -0.71821   0.00000  -0.71821 v5,v5c,v5x  -0.71821   0.00000  -0.71821

------- case.scf1 --------
:LMAX-WF:   10   Non-Spherical LMAX:   4

          ATOMIC SPHERE DEPENDENT PARAMETERS FOR ATOM  Pr        
:e__0001: OVERALL ENERGY PARAMETER IS    0.3987
          OVERALL BASIS SET ON ATOM IS LAPW
:E0_0001: E( 0)=    0.3987
             APW+lo
:E0_0001: E( 0)=   -2.0573   E(BOTTOM)=   -2.441   E(TOP)=   -1.674  4  5   181
             LOCAL ORBITAL
:E1_0001: E( 1)=    0.7987
             APW+lo
:E1_0001: E( 1)=   -0.6715   E(BOTTOM)=   -1.321   E(TOP)=   -0.022  3  4   176
             LOCAL ORBITAL
:E3_0001: E( 3)=    0.6243   E(BOTTOM)=    0.480   E(TOP)=    0.769  0  1   120
             APW+lo
:E2_0001: E( 2)=    0.3987   E(BOTTOM)=    0.251   E(TOP)= -200.000  2 -1    91
             APW+lo

       K=   0.00000   0.00000   0.00000            1
:RKM  : MATRIX SIZE   189LOs:  20  RKM= 8.34  WEIGHT= 1.00  PGR:    
       EIGENVALUES ARE:
:EIG00001:      -2.0204358   -0.6503893   -0.6503893   -0.6503893    0.3477469
:EIG00006:       0.6153163    0.6368318    0.6368318    0.6368318    0.6651214
:EIG00011:       0.6651214    0.6651214    0.7346956    0.7346956    0.7346956
:EIG00016:       0.9152408    0.9152408    1.3187884    1.5509063    1.5509063
:EIG00021:       1.5509063    1.6504759    2.3766849    2.3766849    2.3766849
:EIG00026:       2.4699481    2.4699481    2.4699481    2.6596908    2.6596908
:EIG00031:       3.0535872    3.2076312    3.2076312    3.2076312    3.6566116
:EIG00036:       3.6566116    3.8899213    3.8899213    3.8899213    3.9427886
:EIG00041:       3.9427886    3.9427886    4.0445305    4.0445305    4.0445305
:EIG00046:       4.3385331    4.3385331    4.3385331    4.3858513    4.4414909
 
:EIG00051:       4.4414909    4.5468335    4.5468335    4.5468335    4.5744706
:EIG00056:       4.5744706    4.5744706    4.6841479    4.6856310    4.8020109
:EIG00061:       4.8020109    4.8020109    4.9702494    4.9702494    4.9702494
:EIG00066:       5.2744979    6.2387430    6.2526060    6.2526060    6.6239353
:EIG00071:       6.6239353    6.6239353    7.1415724    7.1415724    7.3172596
:EIG00076:       7.3172596    7.3172596    7.3665723    7.3665723    7.3665723
:EIG00081:       7.5966027    7.5966027    7.5966027    7.6112493    7.6112493
:EIG00086:       7.7239482    7.7239482    7.7239482    7.7516561    7.7516561
:EIG00091:       7.7516561    7.8217405    7.8217405    7.8217405    7.8277979
:EIG00096:       7.8277979    7.8277979    7.9264894    7.9616368    8.0880742
 
:EIG00101:       8.0880742
       ********************************************************

:KPT   :      NUMBER OF K-POINTS:   165

------- case.scfso --------
   0.0   0.0 angle (M,z), angle (M,x) deg
 
        SPIN-ORBIT EIGENVALUES:
     K=   0.00000   0.00000   0.00000            1
      MATRIX SIZE=  202   WEIGHT= 1.00
     EIGENVALUES ARE:
          -2.0204358   -2.0204358   -0.7977664   -0.7977664   -0.5812988
          -0.5812988   -0.5812988   -0.5812988    0.3477469    0.3477469
           0.6116898    0.6116898    0.6266161    0.6266161    0.6266161
           0.6266161    0.6482877    0.6482877    0.6645050    0.6645050
           0.6716301    0.6716301    0.6716301    0.6716301    0.7309269
           0.7309269    0.7309269    0.7309269    0.7411303    0.7411303
           0.9156011    0.9156011    0.9156011    0.9156011    1.3188506
           1.3188506    1.5462976    1.5462976    1.5530380    1.5530380

           1.5530380    1.5530380    1.6504759    1.6504759    2.3716387
           2.3716387    2.3716387    2.3716387    2.3862685    2.3862685
           2.3956662    2.3956662    2.5079214    2.5079214    2.5079214
           2.5079214    2.6599816    2.6599816    2.6599816    2.6599816
           3.0535872    3.0535872    3.2071988    3.2071988    3.2078603
           3.2078603    3.2078603    3.2078603    3.6565804    3.6565804
           3.6565804    3.6565804    3.8885312    3.8885312    3.8885312
           3.8885312    3.8929811    3.8929811    3.9091772    3.9091772

           3.9612589    3.9612589    3.9612589    3.9612589    4.0445213
           4.0445213    4.0445351    4.0445351    4.0445351    4.0445351
           4.3384766    4.3384766    4.3384766    4.3384766    4.3386534
           4.3386534    4.3858513    4.3858513    4.4414909    4.4414909
           4.4414909    4.4414909
       ********************************************************

------- case.scf2 --------
:GMA  : POTENTIAL AND CHARGE CUT-OFF  12.00 Ry**.5




:POS001: at.nr.   1 position = 0.00000 0.00000 0.50000  multiplicity =  1

       lmmax  5
       lm=   0 0  4 0  4 4  6 0  6 4
:FER gutzwiller fermi energy   0.62038
:EORB         -0.036908611
:SUM sum of gutz band energies         -5.308964981

:CHA001: total charge inside sphere   1 =    10.076048
:PCS001: partial charges sphere =  1 s,p,d,f,      d-eg,d-t2g 
:QTL001: 2.0320 5.3508 0.7007 1.9921 0.0000 0.0000 0.0000 0.2512 0.4495 0.0000 0.0000 0.0000

:CHA  : total charge inside unit cell =       6.500001

------- case.scfc --------

        1.ATOM      Pr                   14 CORE STATES
:1S 001: 1S               -3066.944595265 Ry
:2S 001: 2S                -492.697201579 Ry
:2PP001: 2P*               -465.796425473 Ry
:2P 001: 2P                -430.398906427 Ry
:3S 001: 3S                -105.787776714 Ry
:3PP001: 3P*                -94.325548062 Ry
:3P 001: 3P                 -87.317878411 Ry
:3DD001: 3D*                -67.244632573 Ry
:3D 001: 3D                 -65.733106392 Ry
:4S 001: 4S                 -20.475553086 Ry
:4PP001: 4P*                -16.183037046 Ry
:4P 001: 4P                 -14.656699361 Ry
:4DD001: 4D*                 -7.591530788 Ry
:4D 001: 4D                  -7.322489098 Ry

------- case.scfm --------
:CINT001 Core Integral Atom   1   45.999508

       DENSITY AT NUCLEUS
        JATOM        VALENCE       SEMI-CORE          CORE           TOTAL
:RTO001:   1      650.022866        0.000000   656822.473583   657472.496449
     
       CHARGES OF NEW CHARGE DENSITY
:NTO   : INTERSTITIAL CHARGE =     2.923928
:NPC   : PW Pseudocharge     =     7.670741
:NTO001: CHARGE SPHERE  1    =    56.075556

:NEC01: NUCLEAR AND ELECTRONIC CHARGE     59.00000    58.99948
     
       CHARGES OF OLD CHARGE DENSITY
:OTO   : INTERSTITIAL CHARGE =     2.875572
:OPC   : PW Pseudocharge     =     7.544243
:OTO001: CHARGE SPHERE  1    =    56.124428

:NEC02: NUCLEAR AND ELECTRONIC CHARGE     59.00000    59.00000
     
       CONVERGENCE TEST
:DTO001: DIFFERENCE IN SPHERE  1 =  0.0976693

:DIS  :  CHARGE DISTANCE       ( 0.0976693 for atom    1 spin 1)      0.0976693
 PW Mixed is           53
 
******************************************************
* MULTISECANT MIXING VER9 RELEASE 10.4.0              *
* Standard Mode with controls                        *
* Fixed density scale                                *
* Regularization       1.000E-04                     *
* Trust Upper Limit    5.000E+00                     *
* Max Number of Memory Steps    8                    *
******************************************************
 
:PWTMP   1.6893E+02  1.2500E+02  2.3438E+02
:PLANE:  PW TOTAL      2.9969 DISTAN   1.39E-01  4.65E+00 %
:CHARG:  CLM/ATOM    977.1906 DISTAN   2.07E-01  2.12E-02 %
 
Step History
        DMIX         DMIXT        Red     Pred      Trust     Lambda    MagRel    MagAbs     Beta
  1   3.5000E-02   3.5000E-02 -1.00E+00  1.00E+00 -1.00E+01  1.00E+00  3.50E-02  3.50E-02  1.00E+00
  2   2.5000E-02   2.5000E-02  9.75E-01  1.00E+00 -1.00E+01  1.00E+00  2.50E-02  1.09E-02  1.00E+00
  3   3.1988E-02   3.1988E-02  6.60E-01  1.00E+00 -1.00E+01  7.09E-01  3.20E-02  1.36E-02  1.00E+00
  4   7.9971E-02   4.8693E-02 -1.00E+00  8.50E-01  2.84E-01  1.00E+00  2.84E-01  7.97E-02  1.00E+00
:JACOBIANS    2.671E-01   8.336E-01
  
:NORMS:  1/Froebius, Min, Max, Used   0.9435E+00  0.6076E+00  0.1042E+01  0.9443E+00
:INFO :  Number of Memory Steps    3 Skipping    0
:INFO :  SLambda=    0.4871613952  Max    0.4871613952
:PREDicted Charge, CTotal, PW Trust    1.107E-02   1.107E-02   4.014E-02
:PREDicted DMix, Beta, BLim   7.0592E-01  2.5546E+00  9.4745E-01

Eigenvalues, unscaled except for SY+YY
   #     SY Real        SY Imag          SS             YY         SY+YY Real      SY+YY Imag
   1   2.627021E+00   0.000000E+00   2.663723E+00   2.987025E+00   4.266519E+00   0.000000E+00
   2  -6.994980E-16   0.000000E+00   6.738678E-03   1.291303E-02   6.775579E-05   0.000000E+00
   3   8.426502E-03   0.000000E+00  -1.487440E-17   6.230612E-05   1.730127E-02   0.000000E+00
 
:INFO :  Singular value  4.267E+00 Weight  1.000E+00 Projection -3.281E-02
:INFO :  Singular value  1.730E-02 Weight  9.997E-01 Projection -2.118E+00
:INFO :  Singular value  6.775E-05 Weight  4.893E-02 Projection -1.305E-01
:RANK :  ACTIVE   2.05/3  =  68.29 % ; YY RANK   2.04/3  =  68.04 %
 
:BLIM :  VZERO Control Off
:TRUST:  Step 6.16E-01  Charge 7.50E-02 (e) CTO  2.50E-01 (e) PW  3.50E-01 (e)
:DTRUS:  Lambda    7.923E-01 Increment    7.276E-12 Iterations   106 DMIX    1.836E-01
:INFOA:  Angle SubSpace to MSR1      6.81
:DIRM :  MEMORY  3/8  SCALE   1.000 RED  0.89 PRED  0.85 NEXT  0.40 
:INFO :  Limited by Atoms F by Step T

:TRAVE:  Charge 8.40E-03 (e) CTO  8.40E-03 (e) PW  3.07E-02 (e)
:DIRP :  |MSR1|= 8.855E-02 |PRATT|= 1.393E-01 ANGLE=   2.7 DEGREES
:DIRQ :  |MSR1|= 1.255E-01 |PRATT|= 2.070E-01 ANGLE=  15.3 DEGREES
:DIRT :  |MSR1|= 1.536E-01 |PRATT|= 2.495E-01 ANGLE=  12.7 DEGREES
:MIX  :   MSD1   REGULARIZATION:  2.99E-04 GREED: 0.19993  LMStep 0.72  0.6156 Step           
     
       CHARGES OF MIXED CHARGE DENSITY
:CTO   : INTERSTITIAL CHARGE =     2.888085
:CPC   : PW Pseudocharge     =     7.620243
:CTO001: CHARGE SPHERE  1    =    56.111915

:NEC03: NUCLEAR AND ELECTRONIC CHARGE     59.00000    59.00000

PW CHANGE     H    K    L      Current       Change    Residue
:PTO001:      0    0    0  4.48343923E-02  3.776E-04  7.540E-04
:PTO002:     -1   -1   -1 -1.35505817E-01 -2.005E-03 -3.089E-03
:PTO003:      0    0   -2  7.96871140E-02  1.479E-03  2.264E-03
:PTO004:      0   -2   -2  6.48046825E-02  2.317E-03  3.641E-03
:PTO005:     -1   -1   -3 -5.72269819E-02 -4.405E-03 -6.830E-03
:PTO006:     -2   -2   -2  1.42910740E-02  1.521E-03  2.370E-03
:PTO007:      0    0   -4  1.40399223E-03  1.000E-03  1.542E-03
:PTO008:     -1   -3   -3  3.16460754E-03 -3.377E-03 -5.307E-03
:PTO009:      0   -2   -4 -5.76703199E-03  3.232E-03  5.060E-03
:PTO010:     -2   -2   -4 -9.26961100E-03  2.976E-03  4.664E-03
:PTO011:     -3   -3   -3  3.07837296E-03 -9.430E-04 -1.476E-03
:PTO012:     -1   -1   -5  9.68548286E-03 -2.619E-03 -4.091E-03

:ENE  : ********** TOTAL ENERGY IN Ry =       -18472.12576266


------- case.scf0 --------
 Flat Integration
 New Mode for Coulomb Integral
 Consistent 3/8+Simpson combinations
 Extension of core to zero
 LDM version in phi
 Fifth-order quadrature in outwin


            ---------
:ITE026: 26. ITERATION
            ---------

:NATO :    1 INDEPENDENT AND    1 TOTAL ATOMS IN UNITCELL
       SUBSTANCE: blebleble                                                   

       LATTICE                      = F   
:POT  : POTENTIAL OPTION EX_LDA EC_LDA VX_LDA VC_LDA
:LAT  : LATTICE CONSTANTS=  9.78725  9.78725  9.78725    1.571    1.571    1.571
:VOL  : UNIT CELL VOLUME =     234.38096
       MODE OF CALCULATION IS       = RELA
       NON-SPINPOLARIZED CALCULATION
:IFFT  : FFT-parameters:   80   80   80 Factor: 2.00


   CONVERGENCE PARAMETER FOR PSEUDOCHARGE: NCON=  9
   MAXIMAL VALUE OF RMT(JATOM)*ABSK(NKK) : RK  =29.89674


:VKCOUL :  VK-COUL convergence: 0.390E-07
       ATOMNUMBER=  1 Pr         VCOUL-ZERO =  0.26500E+00
:FIT001: LUSE= 13 SIGMA OF V-XC FIT FOR ATOM  1  0.1706432E-04
:FIT001: LUSE= 13 SIGMA OF V-XC FIT FOR ATOM  1  0.1706432E-04
:DEN  : DENSITY INTEGRAL  =         -7073.47468038   (Ry)
       ELS_POTENTIAL_AT Z=0 and Z=0.5:  -2.51040  -2.51040
       ELS_POTENTIAL_AT Y=0 and Y=0.5:   0.00000   0.00000
:VZERO:v0,v0c,v0x  -3.49144  -2.51040  -0.98104 v5,v5c,v5x  -3.49144  -2.51040  -0.98104
:VZERY:v0,v0c,v0x  -0.71948   0.00000  -0.71948 v5,v5c,v5x  -0.71948   0.00000  -0.71948
:VZERX:v0,v0c,v0x  -0.71948   0.00000  -0.71948 v5,v5c,v5x  -0.71948   0.00000  -0.71948

------- case.scf1 --------
:LMAX-WF:   10   Non-Spherical LMAX:   4

          ATOMIC SPHERE DEPENDENT PARAMETERS FOR ATOM  Pr        
:e__0001: OVERALL ENERGY PARAMETER IS    0.3987
          OVERALL BASIS SET ON ATOM IS LAPW
:E0_0001: E( 0)=    0.3987
             APW+lo
:E0_0001: E( 0)=   -2.0672   E(BOTTOM)=   -2.449   E(TOP)=   -1.685  4  5   177
             LOCAL ORBITAL
:E1_0001: E( 1)=    0.7987
             APW+lo
:E1_0001: E( 1)=   -0.6800   E(BOTTOM)=   -1.328   E(TOP)=   -0.032  3  4   172
             LOCAL ORBITAL
:E3_0001: E( 3)=    0.6058   E(BOTTOM)=    0.463   E(TOP)=    0.748  0  1   118
             APW+lo
:E2_0001: E( 2)=    0.3987   E(BOTTOM)=    0.247   E(TOP)= -200.000  2 -1    93
             APW+lo

       K=   0.00000   0.00000   0.00000            1
:RKM  : MATRIX SIZE   189LOs:  20  RKM= 8.34  WEIGHT= 1.00  PGR:    
       EIGENVALUES ARE:
:EIG00001:      -2.0301696   -0.6581130   -0.6581130   -0.6581130    0.3475224
:EIG00006:       0.5986692    0.6189757    0.6189757    0.6189757    0.6460729
:EIG00011:       0.6460729    0.6460729    0.7325071    0.7325071    0.7325071
:EIG00016:       0.9120766    0.9120766    1.3165049    1.5499524    1.5499524
:EIG00021:       1.5499524    1.6521902    2.3735119    2.3735119    2.3735119
:EIG00026:       2.4675949    2.4675949    2.4675949    2.6576773    2.6576773
:EIG00031:       3.0524734    3.2072222    3.2072222    3.2072222    3.6549995
:EIG00036:       3.6549995    3.8887949    3.8887949    3.8887949    3.9425914
:EIG00041:       3.9425914    3.9425914    4.0440833    4.0440833    4.0440833
:EIG00046:       4.3390764    4.3390764    4.3390764    4.3849833    4.4423432
 
:EIG00051:       4.4423432    4.5474158    4.5474158    4.5474158    4.5754456
:EIG00056:       4.5754456    4.5754456    4.6850682    4.6856711    4.8033493
:EIG00061:       4.8033493    4.8033493    4.9714042    4.9714042    4.9714042
:EIG00066:       5.2759792    6.2385206    6.2522905    6.2522905    6.6242407
:EIG00071:       6.6242407    6.6242407    7.1388103    7.1388103    7.3154102
:EIG00076:       7.3154102    7.3154102    7.3647603    7.3647603    7.3647603
:EIG00081:       7.5968056    7.5968056    7.5968056    7.6117055    7.6117055
:EIG00086:       7.7239802    7.7239802    7.7239802    7.7506083    7.7506083
:EIG00091:       7.7506083    7.8218514    7.8218514    7.8218514    7.8275181
:EIG00096:       7.8275181    7.8275181    7.9272579    7.9619619    8.0886692
 
:EIG00101:       8.0886692
       ********************************************************

:KPT   :      NUMBER OF K-POINTS:   165

------- case.scfso --------
   0.0   0.0 angle (M,z), angle (M,x) deg
 
        SPIN-ORBIT EIGENVALUES:
     K=   0.00000   0.00000   0.00000            1
      MATRIX SIZE=  202   WEIGHT= 1.00
     EIGENVALUES ARE:
          -2.0301696   -2.0301696   -0.8059550   -0.8059550   -0.5887983
          -0.5887983   -0.5887982   -0.5887982    0.3475224    0.3475224
           0.5947938    0.5947938    0.6085210    0.6085210    0.6085210
           0.6085210    0.6305550    0.6305550    0.6456852    0.6456852
           0.6527732    0.6527732    0.6527732    0.6527732    0.7287071
           0.7287071    0.7287071    0.7287071    0.7389865    0.7389865
           0.9124445    0.9124445    0.9124445    0.9124445    1.3165634
           1.3165634    1.5452790    1.5452790    1.5521137    1.5521137

           1.5521137    1.5521137    1.6521902    1.6521902    2.3684593
           2.3684593    2.3684593    2.3684593    2.3831099    2.3831099
           2.3932620    2.3932620    2.5056036    2.5056036    2.5056036
           2.5056036    2.6579685    2.6579685    2.6579685    2.6579685
           3.0524734    3.0524734    3.2067952    3.2067952    3.2074484
           3.2074484    3.2074484    3.2074484    3.6549689    3.6549689
           3.6549689    3.6549689    3.8874089    3.8874089    3.8874089
           3.8874089    3.8918448    3.8918448    3.9090759    3.9090759

           3.9610085    3.9610085    3.9610085    3.9610085    4.0440741
           4.0440741    4.0440879    4.0440879    4.0440879    4.0440879
           4.3390197    4.3390197    4.3390197    4.3390197    4.3391973
           4.3391973    4.3849833    4.3849833    4.4423432    4.4423432
           4.4423432    4.4423432
       ********************************************************

------- case.scf2 --------
:GMA  : POTENTIAL AND CHARGE CUT-OFF  12.00 Ry**.5




:POS001: at.nr.   1 position = 0.00000 0.00000 0.50000  multiplicity =  1

       lmmax  5
       lm=   0 0  4 0  4 4  6 0  6 4
:FER gutzwiller fermi energy   0.61819
:EORB         -0.071218439
:SUM sum of gutz band energies         -5.380300162

:CHA001: total charge inside sphere   1 =    10.098222
:PCS001: partial charges sphere =  1 s,p,d,f,      d-eg,d-t2g 
:QTL001: 2.0325 5.3557 0.7003 2.0093 0.0000 0.0000 0.0000 0.2509 0.4494 0.0000 0.0000 0.0000

:CHA  : total charge inside unit cell =       6.499997

------- case.scfc --------

        1.ATOM      Pr                   14 CORE STATES
:1S 001: 1S               -3066.990417572 Ry
:2S 001: 2S                -492.740770618 Ry
:2PP001: 2P*               -465.840487359 Ry
:2P 001: 2P                -430.442782327 Ry
:3S 001: 3S                -105.826250547 Ry
:3PP001: 3P*                -94.364329677 Ry
:3P 001: 3P                 -87.356292570 Ry
:3DD001: 3D*                -67.283912026 Ry
:3D 001: 3D                 -65.772269965 Ry
:4S 001: 4S                 -20.503282854 Ry
:4PP001: 4P*                -16.210279364 Ry
:4P 001: 4P                 -14.683121337 Ry
:4DD001: 4D*                 -7.616619907 Ry
:4D 001: 4D                  -7.347306487 Ry

------- case.scfm --------
:CINT001 Core Integral Atom   1   45.999515

       DENSITY AT NUCLEUS
        JATOM        VALENCE       SEMI-CORE          CORE           TOTAL
:RTO001:   1      651.438051        0.000000   656825.066407   657476.504458
     
       CHARGES OF NEW CHARGE DENSITY
:NTO   : INTERSTITIAL CHARGE =     2.901924
:NPC   : PW Pseudocharge     =     7.660762
:NTO001: CHARGE SPHERE  1    =    56.097737

:NEC01: NUCLEAR AND ELECTRONIC CHARGE     59.00000    58.99966
     
       CHARGES OF OLD CHARGE DENSITY
:OTO   : INTERSTITIAL CHARGE =     2.888085
:OPC   : PW Pseudocharge     =     7.620243
:OTO001: CHARGE SPHERE  1    =    56.111915

:NEC02: NUCLEAR AND ELECTRONIC CHARGE     59.00000    59.00000
     
       CONVERGENCE TEST
:DTO001: DIFFERENCE IN SPHERE  1 =  0.0299053

:DIS  :  CHARGE DISTANCE       ( 0.0299053 for atom    1 spin 1)      0.0299053
 PW Mixed is           53
 
******************************************************
* MULTISECANT MIXING VER9 RELEASE 10.4.0              *
* Standard Mode with controls                        *
* Fixed density scale                                *
* Regularization       1.000E-04                     *
* Trust Upper Limit    5.000E+00                     *
* Max Number of Memory Steps    8                    *
******************************************************
 
:PWTMP   1.6893E+02  1.2500E+02  2.3438E+02
:PLANE:  PW TOTAL      3.0428 DISTAN   5.04E-02  1.66E+00 %
:CHARG:  CLM/ATOM    977.1805 DISTAN   6.38E-02  6.53E-03 %
 
Step History
        DMIX         DMIXT        Red     Pred      Trust     Lambda    MagRel    MagAbs     Beta
  1   3.5000E-02   3.5000E-02 -1.00E+00  1.00E+00 -1.00E+01  1.00E+00  3.50E-02  3.50E-02  1.00E+00
  2   2.5000E-02   2.5000E-02  9.75E-01  1.00E+00 -1.00E+01  1.00E+00  2.50E-02  1.09E-02  1.00E+00
  3   3.1988E-02   3.1988E-02  6.60E-01  1.00E+00 -1.00E+01  7.09E-01  3.20E-02  1.36E-02  1.00E+00
  4   7.9971E-02   4.8693E-02  8.88E-01  8.50E-01  2.84E-01  4.87E-01  2.84E-01  7.97E-02  1.00E+00
  5   1.9993E-01   1.8362E-01 -1.00E+00  3.99E-01  6.16E-01  1.00E+00  6.16E-01  1.54E-01  1.00E+00
:JACOBIANS    3.906E-01   9.975E-01
  
:NORMS:  1/Froebius, Min, Max, Used   0.9691E+00  0.5993E+00  0.1010E+01  0.1010E+01
:INFO :  Number of Memory Steps    4 Skipping    0
:INFO :  SLambda=    0.9735583716  Max    0.9735583716
:PREDicted Charge, CTotal, PW Trust    1.800E-02   1.800E-02   6.811E-02
:PREDicted DMix, Beta, BLim   9.6831E-02  1.3844E+00  1.6009E+00

Eigenvalues, unscaled except for SY+YY
   #     SY Real        SY Imag          SS             YY         SY+YY Real      SY+YY Imag
   1   3.350664E+00   0.000000E+00   3.397297E+00   3.331534E+00   6.592994E+00   0.000000E+00
   2   4.275201E-01   0.000000E+00   3.596206E-01   6.683603E-01   1.085170E+00   0.000000E+00
   3   1.426999E-16   0.000000E+00   9.630021E-06   8.296512E-05   1.135178E-04   0.000000E+00
   4   2.371238E-05   0.000000E+00   4.131488E-16   2.303897E-05   2.855608E-05   0.000000E+00
 
:INFO :  Singular value  6.594E+00 Weight  1.000E+00 Projection -3.310E-02
:INFO :  Singular value  1.085E+00 Weight  1.000E+00 Projection -5.000E-02
:INFO :  Singular value  1.136E-04 Weight  1.041E-01 Projection  3.190E-01
:INFO :  Singular value  2.854E-05 Weight  7.285E-03 Projection  5.296E-02
:RANK :  ACTIVE   2.11/4  =  52.79 % ; YY RANK   2.06/4  =  51.58 %
 
:BLIM :  VZERO Control Off
:TRUST:  Step 1.03E+00  Charge 7.50E-02 (e) CTO  2.50E-01 (e) PW  3.50E-01 (e)
:DIRM :  MEMORY  4/8  SCALE   1.000 RED  0.33 PRED  0.40 NEXT  0.51 
:TRAVE:  Charge 6.85E-03 (e) CTO  6.85E-03 (e) PW  2.54E-02 (e)
:DIRP :  |MSR1|= 3.853E-02 |PRATT|= 5.042E-02 ANGLE=   2.0 DEGREES
:DIRQ :  |MSR1|= 5.303E-02 |PRATT|= 6.383E-02 ANGLE=  22.8 DEGREES
:DIRT :  |MSR1|= 6.555E-02 |PRATT|= 8.134E-02 ANGLE=  18.3 DEGREES
:MIX  :   MSD1   REGULARIZATION:  3.33E-04 GREED: 0.11227  Newton 1.00  0.8058                
     
       CHARGES OF MIXED CHARGE DENSITY
:CTO   : INTERSTITIAL CHARGE =     2.893382
:CPC   : PW Pseudocharge     =     7.652645
:CTO001: CHARGE SPHERE  1    =    56.106618

:NEC03: NUCLEAR AND ELECTRONIC CHARGE     59.00000    59.00000

PW CHANGE     H    K    L      Current       Change    Residue
:PTO001:      0    0    0  4.49952413E-02  1.608E-04  2.372E-04
:PTO002:     -1   -1   -1 -1.36372414E-01 -8.666E-04 -1.087E-03
:PTO003:      0    0   -2  8.03225202E-02  6.354E-04  7.755E-04
:PTO004:      0   -2   -2  6.58214699E-02  1.017E-03  1.371E-03
:PTO005:     -1   -1   -3 -5.91547676E-02 -1.928E-03 -2.546E-03
:PTO006:     -2   -2   -2  1.49595574E-02  6.685E-04  8.926E-04
:PTO007:      0    0   -4  1.83851280E-03  4.345E-04  5.557E-04
:PTO008:     -1   -3   -3  1.68909234E-03 -1.476E-03 -1.968E-03
:PTO009:      0   -2   -4 -4.35960408E-03  1.407E-03  1.855E-03
:PTO010:     -2   -2   -4 -7.97523709E-03  1.294E-03  1.690E-03
:PTO011:     -3   -3   -3  2.66859494E-03 -4.098E-04 -5.294E-04
:PTO012:     -1   -1   -5  8.55042908E-03 -1.135E-03 -1.459E-03

:ENE  : ********** TOTAL ENERGY IN Ry =       -18472.12620634


------- case.scf0 --------
 Flat Integration
 New Mode for Coulomb Integral
 Consistent 3/8+Simpson combinations
 Extension of core to zero
 LDM version in phi
 Fifth-order quadrature in outwin


            ---------
:ITE027: 27. ITERATION
            ---------

:NATO :    1 INDEPENDENT AND    1 TOTAL ATOMS IN UNITCELL
       SUBSTANCE: blebleble                                                   

       LATTICE                      = F   
:POT  : POTENTIAL OPTION EX_LDA EC_LDA VX_LDA VC_LDA
:LAT  : LATTICE CONSTANTS=  9.78725  9.78725  9.78725    1.571    1.571    1.571
:VOL  : UNIT CELL VOLUME =     234.38096
       MODE OF CALCULATION IS       = RELA
       NON-SPINPOLARIZED CALCULATION
:IFFT  : FFT-parameters:   80   80   80 Factor: 2.00


   CONVERGENCE PARAMETER FOR PSEUDOCHARGE: NCON=  9
   MAXIMAL VALUE OF RMT(JATOM)*ABSK(NKK) : RK  =29.89674


:VKCOUL :  VK-COUL convergence: 0.383E-07
       ATOMNUMBER=  1 Pr         VCOUL-ZERO =  0.26518E+00
:FIT001: LUSE= 13 SIGMA OF V-XC FIT FOR ATOM  1  0.1570100E-04
:FIT001: LUSE= 13 SIGMA OF V-XC FIT FOR ATOM  1  0.1570100E-04
:DEN  : DENSITY INTEGRAL  =         -7072.85274148   (Ry)
       ELS_POTENTIAL_AT Z=0 and Z=0.5:  -2.51207  -2.51207
       ELS_POTENTIAL_AT Y=0 and Y=0.5:   0.00000   0.00000
:VZERO:v0,v0c,v0x  -3.49570  -2.51207  -0.98363 v5,v5c,v5x  -3.49570  -2.51207  -0.98363
:VZERY:v0,v0c,v0x  -0.72001   0.00000  -0.72001 v5,v5c,v5x  -0.72001   0.00000  -0.72001
:VZERX:v0,v0c,v0x  -0.72001   0.00000  -0.72001 v5,v5c,v5x  -0.72001   0.00000  -0.72001

------- case.scf1 --------
:LMAX-WF:   10   Non-Spherical LMAX:   4

          ATOMIC SPHERE DEPENDENT PARAMETERS FOR ATOM  Pr        
:e__0001: OVERALL ENERGY PARAMETER IS    0.3987
          OVERALL BASIS SET ON ATOM IS LAPW
:E0_0001: E( 0)=    0.3987
             APW+lo
:E0_0001: E( 0)=   -2.0713   E(BOTTOM)=   -2.452   E(TOP)=   -1.690  4  5   180
             LOCAL ORBITAL
:E1_0001: E( 1)=    0.7987
             APW+lo
:E1_0001: E( 1)=   -0.6834   E(BOTTOM)=   -1.330   E(TOP)=   -0.037  3  4   171
             LOCAL ORBITAL
:E3_0001: E( 3)=    0.5985   E(BOTTOM)=    0.457   E(TOP)=    0.740  0  1   114
             APW+lo
:E2_0001: E( 2)=    0.3987   E(BOTTOM)=    0.245   E(TOP)= -200.000  2 -1    88
             APW+lo

       K=   0.00000   0.00000   0.00000            1
:RKM  : MATRIX SIZE   189LOs:  20  RKM= 8.34  WEIGHT= 1.00  PGR:    
       EIGENVALUES ARE:
:EIG00001:      -2.0341178   -0.6612492   -0.6612492   -0.6612492    0.3474321
:EIG00006:       0.5920138    0.6118632    0.6118632    0.6118632    0.6385134
:EIG00011:       0.6385134    0.6385134    0.7316127    0.7316127    0.7316127
:EIG00016:       0.9107868    0.9107868    1.3156688    1.5496097    1.5496097
:EIG00021:       1.5496097    1.6528806    2.3722327    2.3722327    2.3722327
:EIG00026:       2.4666574    2.4666574    2.4666574    2.6568549    2.6568549
:EIG00031:       3.0520311    3.2070843    3.2070843    3.2070843    3.6543488
:EIG00036:       3.6543488    3.8883409    3.8883409    3.8883409    3.9425158
:EIG00041:       3.9425158    3.9425158    4.0438858    4.0438858    4.0438858
:EIG00046:       4.3392837    4.3392837    4.3392837    4.3846326    4.4426806
 
:EIG00051:       4.4426806    4.5476532    4.5476532    4.5476532    4.5758463
:EIG00056:       4.5758463    4.5758463    4.6848340    4.6862992    4.8038856
:EIG00061:       4.8038856    4.8038856    4.9718784    4.9718784    4.9718784
:EIG00066:       5.2765994    6.2384116    6.2521513    6.2521513    6.6243644
:EIG00071:       6.6243644    6.6243644    7.1376641    7.1376641    7.3146384
:EIG00076:       7.3146384    7.3146384    7.3640259    7.3640259    7.3640259
:EIG00081:       7.5968727    7.5968727    7.5968727    7.6118799    7.6118799
:EIG00086:       7.7239929    7.7239929    7.7239929    7.7501895    7.7501895
:EIG00091:       7.7501895    7.8218806    7.8218806    7.8218806    7.8273845
:EIG00096:       7.8273845    7.8273845    7.9275597    7.9620826    8.0888983
 
:EIG00101:       8.0888983
       ********************************************************

:KPT   :      NUMBER OF K-POINTS:   165

------- case.scfso --------
   0.0   0.0 angle (M,z), angle (M,x) deg
 
        SPIN-ORBIT EIGENVALUES:
     K=   0.00000   0.00000   0.00000            1
      MATRIX SIZE=  202   WEIGHT= 1.00
     EIGENVALUES ARE:
          -2.0341178   -2.0341178   -0.8092793   -0.8092793   -0.5918436
          -0.5918436   -0.5918436   -0.5918436    0.3474321    0.3474321
           0.5880390    0.5880390    0.6013167    0.6013167    0.6013167
           0.6013167    0.6234890    0.6234890    0.6382177    0.6382177
           0.6452876    0.6452876    0.6452876    0.6452876    0.7277999
           0.7277999    0.7277999    0.7277999    0.7381103    0.7381103
           0.9111577    0.9111577    0.9111577    0.9111577    1.3157259
           1.3157259    1.5449109    1.5449109    1.5517824    1.5517824

           1.5517824    1.5517824    1.6528806    1.6528806    2.3671776
           2.3671776    2.3671776    2.3671776    2.3818366    2.3818366
           2.3923048    2.3923048    2.5046799    2.5046799    2.5046799
           2.5046799    2.6571462    2.6571462    2.6571462    2.6571462
           3.0520311    3.0520311    3.2066594    3.2066594    3.2073093
           3.2073093    3.2073093    3.2073093    3.6543185    3.6543185
           3.6543185    3.6543185    3.8869566    3.8869566    3.8869566
           3.8869566    3.8913868    3.8913868    3.9090385    3.9090385

           3.9609116    3.9609116    3.9609116    3.9609116    4.0438765
           4.0438765    4.0438904    4.0438904    4.0438904    4.0438904
           4.3392268    4.3392268    4.3392268    4.3392268    4.3394048
           4.3394048    4.3846326    4.3846326    4.4426806    4.4426806
           4.4426806    4.4426806
       ********************************************************

------- case.scf2 --------
:GMA  : POTENTIAL AND CHARGE CUT-OFF  12.00 Ry**.5




:POS001: at.nr.   1 position = 0.00000 0.00000 0.50000  multiplicity =  1

       lmmax  5
       lm=   0 0  4 0  4 4  6 0  6 4
:FER gutzwiller fermi energy   0.61740
:EORB         -0.085401209
:SUM sum of gutz band energies         -5.408934869

:CHA001: total charge inside sphere   1 =    10.106021
:PCS001: partial charges sphere =  1 s,p,d,f,      d-eg,d-t2g 
:QTL001: 2.0327 5.3578 0.7006 2.0145 0.0000 0.0000 0.0000 0.2509 0.4497 0.0000 0.0000 0.0000

:CHA  : total charge inside unit cell =       6.500001

------- case.scfc --------

        1.ATOM      Pr                   14 CORE STATES
:1S 001: 1S               -3067.005356755 Ry
:2S 001: 2S                -492.755453493 Ry
:2PP001: 2P*               -465.855224484 Ry
:2P 001: 2P                -430.457498557 Ry
:3S 001: 3S                -105.840133205 Ry
:3PP001: 3P*                -94.378267871 Ry
:3P 001: 3P                 -87.370151907 Ry
:3DD001: 3D*                -67.297937690 Ry
:3D 001: 3D                 -65.786273260 Ry
:4S 001: 4S                 -20.514017581 Ry
:4PP001: 4P*                -16.220837148 Ry
:4P 001: 4P                 -14.693397874 Ry
:4DD001: 4D*                 -7.626408605 Ry
:4D 001: 4D                  -7.356999750 Ry

------- case.scfm --------
:CINT001 Core Integral Atom   1   45.999517

       DENSITY AT NUCLEUS
        JATOM        VALENCE       SEMI-CORE          CORE           TOTAL
:RTO001:   1      652.004059        0.000000   656825.763271   657477.767330
     
       CHARGES OF NEW CHARGE DENSITY
:NTO   : INTERSTITIAL CHARGE =     2.893968
:NPC   : PW Pseudocharge     =     7.657311
:NTO001: CHARGE SPHERE  1    =    56.105539

:NEC01: NUCLEAR AND ELECTRONIC CHARGE     59.00000    58.99951
     
       CHARGES OF OLD CHARGE DENSITY
:OTO   : INTERSTITIAL CHARGE =     2.893382
:OPC   : PW Pseudocharge     =     7.652645
:OTO001: CHARGE SPHERE  1    =    56.106618

:NEC02: NUCLEAR AND ELECTRONIC CHARGE     59.00000    59.00000
     
       CONVERGENCE TEST
:DTO001: DIFFERENCE IN SPHERE  1 =  0.0324759

:DIS  :  CHARGE DISTANCE       ( 0.0324759 for atom    1 spin 1)      0.0324759
 PW Mixed is           53
 
******************************************************
* MULTISECANT MIXING VER9 RELEASE 10.4.0              *
* Standard Mode with controls                        *
* Fixed density scale                                *
* Regularization       1.000E-04                     *
* Trust Upper Limit    5.000E+00                     *
* Max Number of Memory Steps    8                    *
******************************************************
 
:PWTMP   1.6893E+02  1.2500E+02  2.3438E+02
:PLANE:  PW TOTAL      3.0631 DISTAN   1.22E-02  3.97E-01 %
:CHARG:  CLM/ATOM    977.1788 DISTAN   3.27E-02  3.34E-03 %
 
Step History
        DMIX         DMIXT        Red     Pred      Trust     Lambda    MagRel    MagAbs     Beta
  1   3.5000E-02   3.5000E-02 -1.00E+00  1.00E+00 -1.00E+01  1.00E+00  3.50E-02  3.50E-02  1.00E+00
  2   2.5000E-02   2.5000E-02  9.75E-01  1.00E+00 -1.00E+01  1.00E+00  2.50E-02  1.09E-02  1.00E+00
  3   3.1988E-02   3.1988E-02  6.60E-01  1.00E+00 -1.00E+01  7.09E-01  3.20E-02  1.36E-02  1.00E+00
  4   7.9971E-02   4.8693E-02  8.88E-01  8.50E-01  2.84E-01  4.87E-01  2.84E-01  7.97E-02  1.00E+00
  5   1.9993E-01   1.8362E-01  3.26E-01  3.99E-01  6.16E-01  9.74E-01  6.16E-01  1.54E-01  1.00E+00
  6   1.1227E-01   1.1227E-01 -1.00E+00  5.09E-01  1.03E+00  1.00E+00  8.06E-01  6.55E-02  1.00E+00
:JACOBIANS    5.873E-01   1.316E+00
  
:NORMS:  1/Froebius, Min, Max, Used   0.9619E+00  0.5641E+00  0.1010E+01  0.9869E+00
:INFO :  Number of Memory Steps    5 Skipping    0
:INFO :  SLambda=    0.2869987003  Max    0.2869987003
:PREDicted Charge, CTotal, PW Trust    7.109E-03   7.109E-03   2.737E-02
:PREDicted DMix, Beta, BLim   6.2252E-01  1.2085E+00  1.2571E+00

Eigenvalues, unscaled except for SY+YY
   #     SY Real        SY Imag          SS             YY         SY+YY Real      SY+YY Imag
   1   4.219188E+00   0.000000E+00   4.204334E+00   4.316546E+00   5.525528E+00   0.000000E+00
   2   4.719671E-01   0.000000E+00   4.197824E-01   6.791925E-01   8.164741E-01   0.000000E+00
   3   2.744999E-03   0.000000E+00   1.669661E-03   4.214261E-03   5.092649E-03   0.000000E+00
   4   1.870384E-06   0.000000E+00   4.106433E-07   4.552684E-05   4.823124E-05   0.000000E+00
   5   1.434964E-15   0.000000E+00   9.406290E-17   1.319190E-06   1.381616E-06   0.000000E+00
 
:INFO :  Singular value  5.526E+00 Weight  1.000E+00 Projection -8.254E-04
:INFO :  Singular value  8.165E-01 Weight  1.000E+00 Projection -1.939E-04
:INFO :  Singular value  5.093E-03 Weight  9.929E-01 Projection -5.186E-01
:INFO :  Singular value  4.825E-05 Weight  1.234E-02 Projection  1.393E-02
:INFO :  Singular value  1.381E-06 Weight  1.024E-05 Projection  2.765E-06
:RANK :  ACTIVE   3.01/5  =  60.10 % ; YY RANK   3.00/5  =  60.01 %
 
:BLIM :  VZERO Control Off
:TRUST:  Step 1.37E+00  Charge 6.00E-02 (e) CTO  2.00E-01 (e) PW  2.80E-01 (e)
:DIRM :  MEMORY  5/8  SCALE   1.000 RED  0.43 PRED  0.51 NEXT  0.24 
:TRAVE:  Charge 4.60E-03 (e) CTO  4.60E-03 (e) PW  1.61E-02 (e)
:DIRP :  |MSR1|= 1.512E-02 |PRATT|= 1.215E-02 ANGLE=   4.1 DEGREES
:DIRQ :  |MSR1|= 2.125E-02 |PRATT|= 3.267E-02 ANGLE=  10.0 DEGREES
:DIRT :  |MSR1|= 2.608E-02 |PRATT|= 3.486E-02 ANGLE=  17.5 DEGREES
:MIX  :   MSD1   REGULARIZATION:  4.32E-04 GREED: 0.28067  Newton 1.00  0.7482                
     
       CHARGES OF MIXED CHARGE DENSITY
:CTO   : INTERSTITIAL CHARGE =     2.895741
:CPC   : PW Pseudocharge     =     7.662967
:CTO001: CHARGE SPHERE  1    =    56.104259

:NEC03: NUCLEAR AND ELECTRONIC CHARGE     59.00000    59.00000

PW CHANGE     H    K    L      Current       Change    Residue
:PTO001:      0    0    0  4.50493415E-02  5.410E-05  3.008E-05
:PTO002:     -1   -1   -1 -1.36695833E-01 -3.234E-04 -2.367E-04
:PTO003:      0    0   -2  8.05331365E-02  2.106E-04  1.444E-04
:PTO004:      0   -2   -2  6.62705936E-02  4.491E-04  3.793E-04
:PTO005:     -1   -1   -3 -5.99602607E-02 -8.055E-04 -6.750E-04
:PTO006:     -2   -2   -2  1.52397222E-02  2.802E-04  2.434E-04
:PTO007:      0    0   -4  2.00016102E-03  1.616E-04  1.278E-04
:PTO008:     -1   -3   -3  1.07958894E-03 -6.095E-04 -5.078E-04
:PTO009:      0   -2   -4 -3.79550043E-03  5.641E-04  4.570E-04
:PTO010:     -2   -2   -4 -7.48357562E-03  4.917E-04  3.961E-04
:PTO011:     -3   -3   -3  2.52093953E-03 -1.477E-04 -1.188E-04
:PTO012:     -1   -1   -5  8.14049504E-03 -4.099E-04 -3.177E-04

:ENE  : ********** TOTAL ENERGY IN Ry =       -18472.12687522


------- case.scf0 --------
 Flat Integration
 New Mode for Coulomb Integral
 Consistent 3/8+Simpson combinations
 Extension of core to zero
 LDM version in phi
 Fifth-order quadrature in outwin


            ---------
:ITE028: 28. ITERATION
            ---------

:NATO :    1 INDEPENDENT AND    1 TOTAL ATOMS IN UNITCELL
       SUBSTANCE: blebleble                                                   

       LATTICE                      = F   
:POT  : POTENTIAL OPTION EX_LDA EC_LDA VX_LDA VC_LDA
:LAT  : LATTICE CONSTANTS=  9.78725  9.78725  9.78725    1.571    1.571    1.571
:VOL  : UNIT CELL VOLUME =     234.38096
       MODE OF CALCULATION IS       = RELA
       NON-SPINPOLARIZED CALCULATION
:IFFT  : FFT-parameters:   80   80   80 Factor: 2.00


   CONVERGENCE PARAMETER FOR PSEUDOCHARGE: NCON=  9
   MAXIMAL VALUE OF RMT(JATOM)*ABSK(NKK) : RK  =29.89674


:VKCOUL :  VK-COUL convergence: 0.396E-07
       ATOMNUMBER=  1 Pr         VCOUL-ZERO =  0.26507E+00
:FIT001: LUSE= 13 SIGMA OF V-XC FIT FOR ATOM  1  0.1629725E-04
:FIT001: LUSE= 13 SIGMA OF V-XC FIT FOR ATOM  1  0.1629725E-04
:DEN  : DENSITY INTEGRAL  =         -7072.99441053   (Ry)
       ELS_POTENTIAL_AT Z=0 and Z=0.5:  -2.51264  -2.51264
       ELS_POTENTIAL_AT Y=0 and Y=0.5:   0.00000   0.00000
:VZERO:v0,v0c,v0x  -3.49680  -2.51264  -0.98416 v5,v5c,v5x  -3.49680  -2.51264  -0.98416
:VZERY:v0,v0c,v0x  -0.72020   0.00000  -0.72020 v5,v5c,v5x  -0.72020   0.00000  -0.72020
:VZERX:v0,v0c,v0x  -0.72020   0.00000  -0.72020 v5,v5c,v5x  -0.72020   0.00000  -0.72020

------- case.scf1 --------
:LMAX-WF:   10   Non-Spherical LMAX:   4

          ATOMIC SPHERE DEPENDENT PARAMETERS FOR ATOM  Pr        
:e__0001: OVERALL ENERGY PARAMETER IS    0.3987
          OVERALL BASIS SET ON ATOM IS LAPW
:E0_0001: E( 0)=    0.3987
             APW+lo
:E0_0001: E( 0)=   -2.0724   E(BOTTOM)=   -2.453   E(TOP)=   -1.691  4  5   176
             LOCAL ORBITAL
:E1_0001: E( 1)=    0.7987
             APW+lo
:E1_0001: E( 1)=   -0.6843   E(BOTTOM)=   -1.331   E(TOP)=   -0.038  3  4   177
             LOCAL ORBITAL
:E3_0001: E( 3)=    0.5972   E(BOTTOM)=    0.456   E(TOP)=    0.739  0  1   111
             APW+lo
:E2_0001: E( 2)=    0.3987   E(BOTTOM)=    0.244   E(TOP)= -200.000  2 -1    89
             APW+lo

       K=   0.00000   0.00000   0.00000            1
:RKM  : MATRIX SIZE   189LOs:  20  RKM= 8.34  WEIGHT= 1.00  PGR:    
       EIGENVALUES ARE:
:EIG00001:      -2.0351581   -0.6620831   -0.6620831   -0.6620831    0.3473788
:EIG00006:       0.5908549    0.6106134    0.6106134    0.6106134    0.6372036
:EIG00011:       0.6372036    0.6372036    0.7313681    0.7313681    0.7313681
:EIG00016:       0.9104264    0.9104264    1.3156026    1.5495555    1.5495555
:EIG00021:       1.5495555    1.6529924    2.3719113    2.3719113    2.3719113
:EIG00026:       2.4664520    2.4664520    2.4664520    2.6566195    2.6566195
:EIG00031:       3.0519354    3.2070937    3.2070937    3.2070937    3.6541420
:EIG00036:       3.6541420    3.8882066    3.8882066    3.8882066    3.9424763
:EIG00041:       3.9424763    3.9424763    4.0437469    4.0437469    4.0437469
:EIG00046:       4.3392723    4.3392723    4.3392723    4.3845116    4.4427265
 
:EIG00051:       4.4427265    4.5476913    4.5476913    4.5476913    4.5759101
:EIG00056:       4.5759101    4.5759101    4.6847214    4.6864615    4.8039628
:EIG00061:       4.8039628    4.8039628    4.9719704    4.9719704    4.9719704
:EIG00066:       5.2767605    6.2382838    6.2520451    6.2520451    6.6243628
:EIG00071:       6.6243628    6.6243628    7.1372631    7.1372631    7.3143501
:EIG00076:       7.3143501    7.3143501    7.3638287    7.3638287    7.3638287
:EIG00081:       7.5968162    7.5968162    7.5968162    7.6118691    7.6118691
:EIG00086:       7.7239661    7.7239661    7.7239661    7.7500827    7.7500827
:EIG00091:       7.7500827    7.8218059    7.8218059    7.8218059    7.8272379
:EIG00096:       7.8272379    7.8272379    7.9275573    7.9620559    8.0888879
 
:EIG00101:       8.0888879
       ********************************************************

:KPT   :      NUMBER OF K-POINTS:   165

------- case.scfso --------
   0.0   0.0 angle (M,z), angle (M,x) deg
 
        SPIN-ORBIT EIGENVALUES:
     K=   0.00000   0.00000   0.00000            1
      MATRIX SIZE=  202   WEIGHT= 1.00
     EIGENVALUES ARE:
          -2.0351581   -2.0351581   -0.8101620   -0.8101620   -0.5926539
          -0.5926539   -0.5926539   -0.5926539    0.3473788    0.3473788
           0.5868674    0.5868674    0.6000606    0.6000606    0.6000606
           0.6000606    0.6222403    0.6222403    0.6369216    0.6369216
           0.6439834    0.6439834    0.6439834    0.6439834    0.7275517
           0.7275517    0.7275517    0.7275517    0.7378708    0.7378708
           0.9107983    0.9107983    0.9107983    0.9107983    1.3156594
           1.3156594    1.5448510    1.5448510    1.5517308    1.5517308

           1.5517308    1.5517308    1.6529924    1.6529924    2.3668552
           2.3668552    2.3668552    2.3668552    2.3815171    2.3815171
           2.3920976    2.3920976    2.5044764    2.5044764    2.5044764
           2.5044764    2.6569109    2.6569109    2.6569109    2.6569109
           3.0519354    3.0519354    3.2066692    3.2066692    3.2073184
           3.2073184    3.2073184    3.2073184    3.6541118    3.6541118
           3.6541118    3.6541118    3.8868225    3.8868225    3.8868225
           3.8868225    3.8912518    3.8912518    3.9090073    3.9090073

           3.9608676    3.9608676    3.9608676    3.9608676    4.0437377
           4.0437377    4.0437515    4.0437515    4.0437515    4.0437515
           4.3392154    4.3392154    4.3392154    4.3392154    4.3393935
           4.3393935    4.3845116    4.3845116    4.4427265    4.4427265
           4.4427265    4.4427265
       ********************************************************

------- case.scf2 --------
:GMA  : POTENTIAL AND CHARGE CUT-OFF  12.00 Ry**.5




:POS001: at.nr.   1 position = 0.00000 0.00000 0.50000  multiplicity =  1

       lmmax  5
       lm=   0 0  4 0  4 4  6 0  6 4
:FER gutzwiller fermi energy   0.61744
:EORB         -0.088483862
:SUM sum of gutz band energies         -5.415850518

:CHA001: total charge inside sphere   1 =    10.105508
:PCS001: partial charges sphere =  1 s,p,d,f,      d-eg,d-t2g 
:QTL001: 2.0327 5.3585 0.7022 2.0116 0.0000 0.0000 0.0000 0.2514 0.4508 0.0000 0.0000 0.0000

:CHA  : total charge inside unit cell =       6.500004

------- case.scfc --------

        1.ATOM      Pr                   14 CORE STATES
:1S 001: 1S               -3066.993731087 Ry
:2S 001: 2S                -492.746600829 Ry
:2PP001: 2P*               -465.845758633 Ry
:2P 001: 2P                -430.448262321 Ry
:3S 001: 3S                -105.836533703 Ry
:3PP001: 3P*                -94.374383301 Ry
:3P 001: 3P                 -87.366550006 Ry
:3DD001: 3D*                -67.293581343 Ry
:3D 001: 3D                 -65.782017387 Ry
:4S 001: 4S                 -20.514794232 Ry
:4PP001: 4P*                -16.221651504 Ry
:4P 001: 4P                 -14.694354339 Ry
:4DD001: 4D*                 -7.627447579 Ry
:4D 001: 4D                  -7.358074989 Ry

------- case.scfm --------
:CINT001 Core Integral Atom   1   45.999518

       DENSITY AT NUCLEUS
        JATOM        VALENCE       SEMI-CORE          CORE           TOTAL
:RTO001:   1      652.146587        0.000000   656824.424850   657476.571437
     
       CHARGES OF NEW CHARGE DENSITY
:NTO   : INTERSTITIAL CHARGE =     2.894661
:NPC   : PW Pseudocharge     =     7.658053
:NTO001: CHARGE SPHERE  1    =    56.105025

:NEC01: NUCLEAR AND ELECTRONIC CHARGE     59.00000    58.99969
     
       CHARGES OF OLD CHARGE DENSITY
:OTO   : INTERSTITIAL CHARGE =     2.895741
:OPC   : PW Pseudocharge     =     7.662967
:OTO001: CHARGE SPHERE  1    =    56.104259

:NEC02: NUCLEAR AND ELECTRONIC CHARGE     59.00000    59.00000
     
       CONVERGENCE TEST
:DTO001: DIFFERENCE IN SPHERE  1 =  0.0048790

:DIS  :  CHARGE DISTANCE       ( 0.0048790 for atom    1 spin 1)      0.0048790
 PW Mixed is           53
 
******************************************************
* MULTISECANT MIXING VER9 RELEASE 10.4.0              *
* Standard Mode with controls                        *
* Fixed density scale                                *
* Regularization       1.000E-04                     *
* Trust Upper Limit    5.000E+00                     *
* Max Number of Memory Steps    8                    *
******************************************************
 
:PWTMP   1.6893E+02  1.2500E+02  2.3438E+02
:PLANE:  PW TOTAL      3.0709 DISTAN   3.01E-03  9.82E-02 %
:CHARG:  CLM/ATOM    977.1889 DISTAN   4.93E-03  5.04E-04 %
 
Step History
        DMIX         DMIXT        Red     Pred      Trust     Lambda    MagRel    MagAbs     Beta
  1   3.5000E-02   3.5000E-02 -1.00E+00  1.00E+00 -1.00E+01  1.00E+00  3.50E-02  3.50E-02  1.00E+00
  2   2.5000E-02   2.5000E-02  9.75E-01  1.00E+00 -1.00E+01  1.00E+00  2.50E-02  1.09E-02  1.00E+00
  3   3.1988E-02   3.1988E-02  6.60E-01  1.00E+00 -1.00E+01  7.09E-01  3.20E-02  1.36E-02  1.00E+00
  4   7.9971E-02   4.8693E-02  8.88E-01  8.50E-01  2.84E-01  4.87E-01  2.84E-01  7.97E-02  1.00E+00
  5   1.9993E-01   1.8362E-01  3.26E-01  3.99E-01  6.16E-01  9.74E-01  6.16E-01  1.54E-01  1.00E+00
  6   1.1227E-01   1.1227E-01  4.29E-01  5.09E-01  1.03E+00  2.87E-01  8.06E-01  6.55E-02  1.00E+00
  7   2.8067E-01   2.8067E-01 -1.00E+00  2.40E-01  1.37E+00  1.00E+00  7.48E-01  2.61E-02  1.00E+00
:JACOBIANS    6.587E-01   1.531E+00
  
:NORMS:  1/Froebius, Min, Max, Used   0.9573E+00  0.5380E+00  0.1012E+01  0.1012E+01
:INFO :  Number of Memory Steps    6 Skipping    0
:INFO :  SLambda=    1.0000000000  Max    1.0000000000
:PREDicted Charge, CTotal, PW Trust    2.132E-03   2.132E-03   5.591E-03
:PREDicted DMix, Beta, BLim   1.1236E-01  1.0031E+00  8.3459E-01

Eigenvalues, unscaled except for SY+YY
   #     SY Real        SY Imag          SS             YY         SY+YY Real      SY+YY Imag
[...]
:3D 001: 3D                 -65.796090858 Ry
:4S 001: 4S                 -20.528592404 Ry
:4PP001: 4P*                -16.235255077 Ry
:4P 001: 4P                 -14.707712989 Ry
:4DD001: 4D*                 -7.640248671 Ry
:4D 001: 4D                  -7.370783176 Ry

------- case.scfm --------
:CINT001 Core Integral Atom   1   45.999521

       DENSITY AT NUCLEUS
        JATOM        VALENCE       SEMI-CORE          CORE           TOTAL
:RTO001:   1      653.030550        0.000000   656824.347894   657477.378444
     
       CHARGES OF NEW CHARGE DENSITY
:NTO   : INTERSTITIAL CHARGE =     2.901760
:NPC   : PW Pseudocharge     =     7.660193
:NTO001: CHARGE SPHERE  1    =    56.097730

:NEC01: NUCLEAR AND ELECTRONIC CHARGE     59.00000    58.99949
     
       CHARGES OF OLD CHARGE DENSITY
:OTO   : INTERSTITIAL CHARGE =     2.904006
:OPC   : PW Pseudocharge     =     7.663803
:OTO001: CHARGE SPHERE  1    =    56.095994

:NEC02: NUCLEAR AND ELECTRONIC CHARGE     59.00000    59.00000
     
       CONVERGENCE TEST
:DTO001: DIFFERENCE IN SPHERE  1 =  0.0026018

:DIS  :  CHARGE DISTANCE       ( 0.0026018 for atom    1 spin 1)      0.0026018
 PW Mixed is           53
 
******************************************************
* MULTISECANT MIXING VER9 RELEASE 10.4.0              *
* Standard Mode with controls                        *
* Fixed density scale                                *
* Regularization       1.000E-04                     *
* Trust Upper Limit    5.000E+00                     *
* Max Number of Memory Steps    8                    *
******************************************************
 
:PWTMP   1.6893E+02  1.2500E+02  2.3438E+02
:PLANE:  PW TOTAL      3.0712 DISTAN   9.62E-04  3.13E-02 %
:CHARG:  CLM/ATOM    977.1937 DISTAN   2.84E-03  2.91E-04 %
 
Step History
        DMIX         DMIXT        Red     Pred      Trust     Lambda    MagRel    MagAbs     Beta
 21   6.3249E-02   6.3249E-02  9.83E-01  2.00E-01  1.18E-01  8.56E-01  2.19E-02  5.92E-04  8.00E-01
 22   7.4041E-02   7.4041E-02  9.70E-01  7.67E-03  1.37E-01  6.52E-01  2.68E-02  7.11E-04  1.00E+00
 23   1.7744E-01   1.7744E-01  9.14E-01  1.21E-02  1.65E-01  2.47E-01  5.68E-02  1.46E-03  1.00E+00
 24   8.6971E-02   8.6971E-02  1.02E+00  1.53E-01  2.99E-01  6.63E-01  3.70E-03  8.70E-05  8.47E-01
 25   2.1743E-01   2.1743E-01  9.15E-01  3.22E-01  1.53E-01  7.56E-01  5.18E-02  1.25E-03  6.78E-01
 26   1.3493E-01   1.3493E-01  8.09E-01  1.53E-01  2.76E-01  8.50E-01  1.18E-01  2.61E-03  8.47E-01
 27   1.0131E-01   7.5736E-02  7.05E-01  8.34E-02  6.24E-01  7.08E-01  1.80E-01  3.22E-03  1.00E+00
 28   1.3060E-01   1.1453E-01  2.20E-01  2.03E-01  8.32E-01  6.12E-01  4.68E-01  5.89E-03  1.00E+00
 29   1.4166E-01   1.4166E-01 -1.00E+00  4.44E-01  1.11E+00  1.00E+00  9.17E-01  2.54E-03  1.00E+00
:JACOBIANS    5.206E-01   1.478E+00
  
:NORMS:  1/Froebius, Min, Max, Used   0.5381E+00  0.5295E+00  0.9287E+00  0.5780E+00
:INFO :  Number of Memory Steps    8 Skipping   20
:INFO :  SLambda=    0.3456096605  Max    1.0000000000
:PREDicted Charge, CTotal, PW Trust    1.769E-04   1.769E-04   1.626E-03
:PREDicted DMix, Beta, BLim   3.4234E-02  5.3750E-01  1.3447E+00

Eigenvalues, unscaled except for SY+YY
   #     SY Real        SY Imag          SS             YY         SY+YY Real      SY+YY Imag
   1   3.393986E+00   0.000000E+00   2.213140E+00   7.894793E+00   9.067118E+00   0.000000E+00
   2   1.043087E-01   0.000000E+00   1.028661E-01   1.043656E-01   1.411091E-01   0.000000E+00
   3   4.816114E-04   0.000000E+00   3.701064E-04   7.284309E-04   8.417833E-04   0.000000E+00
   4   3.434436E-05   0.000000E+00   2.667325E-05   5.704219E-05   9.264214E-05   0.000000E+00
   5   9.134509E-06   0.000000E+00   8.223458E-06   3.343914E-05   4.044129E-05   0.000000E+00
   6   6.349737E-06   0.000000E+00   1.970260E-06   2.121465E-05   2.484002E-05   0.000000E+00
   7   8.575119E-08   0.000000E+00   1.354713E-07   7.428761E-07   5.322249E-07   9.984154E-11
   8   2.272071E-07   0.000000E+00   1.862496E-08   3.737365E-07   5.322249E-07  -9.984154E-11
 
:INFO :  Singular value  9.067E+00 Weight  1.000E+00 Projection -1.017E-03
:INFO :  Singular value  1.411E-01 Weight  1.000E+00 Projection -4.014E-04
:INFO :  Singular value  8.460E-04 Weight  5.345E-01 Projection  7.676E-04
:INFO :  Singular value  9.660E-05 Weight  1.475E-02 Projection -1.382E-03
:INFO :  Singular value  3.935E-05 Weight  2.479E-03 Projection -6.997E-05
:INFO :  Singular value  2.463E-05 Weight  9.724E-04 Projection -3.465E-05
:INFO :  Singular value  6.004E-07 Weight  5.784E-07 Projection -1.137E-07
:INFO :  Singular value  4.665E-07 Weight  3.492E-07 Projection -3.076E-07
:RANK :  ACTIVE   2.55/8  =  31.91 % ; YY RANK   2.47/8  =  30.84 %
 
:DLIM :  Beta Active  8.000E-01
:BLIM :  VZERO Control Off
:TRUST:  Step 1.11E+00  Charge 3.35E-03 (e) CTO  2.75E-03 (e) PW  3.85E-03 (e)
:DIRM :  MEMORY  8/8  SCALE   1.000 RED  1.08 PRED  0.44 NEXT  0.39 BETA  0.80
:TRAVE:  Charge 9.12E-04 (e) CTO  9.12E-04 (e) PW  1.04E-03 (e)
:DIRP :  |MSR1|= 2.239E-04 |PRATT|= 9.617E-04 ANGLE=  16.6 DEGREES
:DIRQ :  |MSR1|= 1.292E-03 |PRATT|= 2.842E-03 ANGLE=  30.6 DEGREES
:DIRT :  |MSR1|= 1.311E-03 |PRATT|= 3.001E-03 ANGLE=  31.2 DEGREES
:MIX  :   MSD1   REGULARIZATION:  7.89E-04 GREED: 0.08447  Newton 1.00  0.4371                
     
       CHARGES OF MIXED CHARGE DENSITY
:CTO   : INTERSTITIAL CHARGE =     2.903439
:CPC   : PW Pseudocharge     =     7.663363
:CTO001: CHARGE SPHERE  1    =    56.096561

:NEC03: NUCLEAR AND ELECTRONIC CHARGE     59.00000    59.00000

PW CHANGE     H    K    L      Current       Change    Residue
:PTO001:      0    0    0  4.50838757E-02 -4.298E-06 -1.706E-05
:PTO002:     -1   -1   -1 -1.36668527E-01  6.565E-06  3.211E-05
:PTO003:      0    0   -2  8.04727042E-02 -2.370E-06 -2.277E-05
:PTO004:      0   -2   -2  6.62627811E-02 -5.479E-06 -1.911E-05
:PTO005:     -1   -1   -3 -5.99003290E-02  5.540E-06  1.333E-05
:PTO006:     -2   -2   -2  1.52479518E-02 -3.093E-06 -4.496E-06
:PTO007:      0    0   -4  1.96506874E-03  2.275E-07  1.574E-06
:PTO008:     -1   -3   -3  1.19134147E-03 -1.397E-06 -1.057E-05
:PTO009:      0   -2   -4 -3.93673184E-03  3.012E-06  1.230E-05
:PTO010:     -2   -2   -4 -7.59954086E-03  2.447E-06  1.377E-05
:PTO011:     -3   -3   -3  2.54974001E-03 -4.143E-07 -4.252E-06
:PTO012:     -1   -1   -5  8.26627478E-03 -3.047E-06 -1.114E-05

:ENE  : ********** TOTAL ENERGY IN Ry =       -18472.12786948


------- case.scf0 --------
 Flat Integration
 New Mode for Coulomb Integral
 Consistent 3/8+Simpson combinations
 Extension of core to zero
 LDM version in phi
 Fifth-order quadrature in outwin


            ---------
:ITE051: 51. ITERATION
            ---------

:NATO :    1 INDEPENDENT AND    1 TOTAL ATOMS IN UNITCELL
       SUBSTANCE: blebleble                                                   

       LATTICE                      = F   
:POT  : POTENTIAL OPTION EX_LDA EC_LDA VX_LDA VC_LDA
:LAT  : LATTICE CONSTANTS=  9.78725  9.78725  9.78725    1.571    1.571    1.571
:VOL  : UNIT CELL VOLUME =     234.38096
       MODE OF CALCULATION IS       = RELA
       NON-SPINPOLARIZED CALCULATION
:IFFT  : FFT-parameters:   80   80   80 Factor: 2.00


   CONVERGENCE PARAMETER FOR PSEUDOCHARGE: NCON=  9
   MAXIMAL VALUE OF RMT(JATOM)*ABSK(NKK) : RK  =29.89674


:VKCOUL :  VK-COUL convergence: 0.418E-07
       ATOMNUMBER=  1 Pr         VCOUL-ZERO =  0.26503E+00
:FIT001: LUSE= 13 SIGMA OF V-XC FIT FOR ATOM  1  0.1725741E-04
:FIT001: LUSE= 13 SIGMA OF V-XC FIT FOR ATOM  1  0.1725741E-04
:DEN  : DENSITY INTEGRAL  =         -7072.37608379   (Ry)
       ELS_POTENTIAL_AT Z=0 and Z=0.5:  -2.51658  -2.51658
       ELS_POTENTIAL_AT Y=0 and Y=0.5:   0.00000   0.00000
:VZERO:v0,v0c,v0x  -3.50048  -2.51658  -0.98390 v5,v5c,v5x  -3.50048  -2.51658  -0.98390
:VZERY:v0,v0c,v0x  -0.72057   0.00000  -0.72057 v5,v5c,v5x  -0.72057   0.00000  -0.72057
:VZERX:v0,v0c,v0x  -0.72057   0.00000  -0.72057 v5,v5c,v5x  -0.72057   0.00000  -0.72057

------- case.scf1 --------
:LMAX-WF:   10   Non-Spherical LMAX:   4

          ATOMIC SPHERE DEPENDENT PARAMETERS FOR ATOM  Pr        
:e__0001: OVERALL ENERGY PARAMETER IS    0.3987
          OVERALL BASIS SET ON ATOM IS LAPW
:E0_0001: E( 0)=    0.3987
             APW+lo
:E0_0001: E( 0)=   -2.0776   E(BOTTOM)=   -2.458   E(TOP)=   -1.697  4  5   172
             LOCAL ORBITAL
:E1_0001: E( 1)=    0.7987
             APW+lo
:E1_0001: E( 1)=   -0.6887   E(BOTTOM)=   -1.334   E(TOP)=   -0.043  3  4   176
             LOCAL ORBITAL
:E3_0001: E( 3)=    0.5879   E(BOTTOM)=    0.447   E(TOP)=    0.728  0  1   122
             APW+lo
:E2_0001: E( 2)=    0.3987   E(BOTTOM)=    0.242   E(TOP)= -200.000  2 -1    87
             APW+lo

       K=   0.00000   0.00000   0.00000            1
:RKM  : MATRIX SIZE   189LOs:  20  RKM= 8.34  WEIGHT= 1.00  PGR:    
       EIGENVALUES ARE:
:EIG00001:      -2.0402925   -0.6661551   -0.6661551   -0.6661551    0.3471480
:EIG00006:       0.5824231    0.6016187    0.6016187    0.6016187    0.6276237
:EIG00011:       0.6276237    0.6276237    0.7301973    0.7301973    0.7301973
:EIG00016:       0.9087205    0.9087205    1.3145648    1.5490026    1.5490026
:EIG00021:       1.5490026    1.6536832    2.3702086    2.3702086    2.3702086
:EIG00026:       2.4651924    2.4651924    2.4651924    2.6555390    2.6555390
:EIG00031:       3.0513072    3.2069049    3.2069049    3.2069049    3.6531713
:EIG00036:       3.6531713    3.8875396    3.8875396    3.8875396    3.9422709
:EIG00041:       3.9422709    3.9422709    4.0433855    4.0433855    4.0433855
:EIG00046:       4.3394509    4.3394509    4.3394509    4.3839380    4.4430882
 
:EIG00051:       4.4430882    4.5479781    4.5479781    4.5479781    4.5762898
:EIG00056:       4.5762898    4.5762898    4.6843481    4.6871908    4.8044960
:EIG00061:       4.8044960    4.8044960    4.9724942    4.9724942    4.9724942
:EIG00066:       5.2774800    6.2380230    6.2517514    6.2517514    6.6244265
:EIG00071:       6.6244265    6.6244265    7.1357301    7.1357301    7.3132707
:EIG00076:       7.3132707    7.3132707    7.3628483    7.3628483    7.3628483
:EIG00081:       7.5968003    7.5968003    7.5968003    7.6120118    7.6120118
:EIG00086:       7.7238906    7.7238906    7.7238906    7.7494467    7.7494467
:EIG00091:       7.7494467    7.8217426    7.8217426    7.8217426    7.8269238
:EIG00096:       7.8269238    7.8269238    7.9277603    7.9621468    8.0890438
 
:EIG00101:       8.0890438
       ********************************************************

:KPT   :      NUMBER OF K-POINTS:   165

------- case.scfso --------
   0.0   0.0 angle (M,z), angle (M,x) deg
 
        SPIN-ORBIT EIGENVALUES:
     K=   0.00000   0.00000   0.00000            1
      MATRIX SIZE=  202   WEIGHT= 1.00
     EIGENVALUES ARE:
          -2.0402925   -2.0402925   -0.8144790   -0.8144790   -0.5966077
          -0.5966077   -0.5966076   -0.5966076    0.3471480    0.3471480
           0.5783075    0.5783075    0.5909516    0.5909516    0.5909516
           0.5909516    0.6132987    0.6132987    0.6274617    0.6274617
           0.6344972    0.6344972    0.6344972    0.6344972    0.7263642
           0.7263642    0.7263642    0.7263642    0.7367235    0.7367235
           0.9090965    0.9090965    0.9090965    0.9090965    1.3146199
           1.3146199    1.5442658    1.5442658    1.5511927    1.5511927

           1.5511927    1.5511927    1.6536832    1.6536832    2.3651491
           2.3651491    2.3651491    2.3651491    2.3798221    2.3798221
           2.3908180    2.3908180    2.5032319    2.5032319    2.5032319
           2.5032319    2.6558306    2.6558306    2.6558306    2.6558306
           3.0513072    3.0513072    3.2064832    3.2064832    3.2071282
           3.2071282    3.2071282    3.2071282    3.6531415    3.6531415
           3.6531415    3.6531415    3.8861574    3.8861574    3.8861574
           3.8861574    3.8905805    3.8905805    3.9088499    3.9088499

           3.9606354    3.9606354    3.9606355    3.9606355    4.0433763
           4.0433763    4.0433901    4.0433901    4.0433901    4.0433901
           4.3393939    4.3393939    4.3393939    4.3393939    4.3395723
           4.3395723    4.3839380    4.3839380    4.4430882    4.4430882
           4.4430882    4.4430882
       ********************************************************

------- case.scf2 --------
:GMA  : POTENTIAL AND CHARGE CUT-OFF  12.00 Ry**.5




:POS001: at.nr.   1 position = 0.00000 0.00000 0.50000  multiplicity =  1

       lmmax  5
       lm=   0 0  4 0  4 4  6 0  6 4
:FER gutzwiller fermi energy   0.61832
:EORB         -0.112136975
:SUM sum of gutz band energies         -5.447368735

:CHA001: total charge inside sphere   1 =    10.097573
:PCS001: partial charges sphere =  1 s,p,d,f,      d-eg,d-t2g 
:QTL001: 2.0332 5.3630 0.7136 1.9874 0.0000 0.0000 0.0000 0.2547 0.4588 0.0000 0.0000 0.0000

:CHA  : total charge inside unit cell =       6.500000

------- case.scfc --------

        1.ATOM      Pr                   14 CORE STATES
:1S 001: 1S               -3067.003230158 Ry
:2S 001: 2S                -492.757562693 Ry
:2PP001: 2P*               -465.856399747 Ry
:2P 001: 2P                -430.459023456 Ry
:3S 001: 3S                -105.849963279 Ry
:3PP001: 3P*                -94.387688067 Ry
:3P 001: 3P                 -87.379954437 Ry
:3DD001: 3D*                -67.306674391 Ry
:3D 001: 3D                 -65.795150995 Ry
:4S 001: 4S                 -20.527703067 Ry
:4PP001: 4P*                -16.234378461 Ry
:4P 001: 4P                 -14.706853036 Ry
:4DD001: 4D*                 -7.639424852 Ry
:4D 001: 4D                  -7.369965544 Ry

------- case.scfm --------
:CINT001 Core Integral Atom   1   45.999521

       DENSITY AT NUCLEUS
        JATOM        VALENCE       SEMI-CORE          CORE           TOTAL
:RTO001:   1      652.979432        0.000000   656824.345897   657477.325329
     
       CHARGES OF NEW CHARGE DENSITY
:NTO   : INTERSTITIAL CHARGE =     2.902443
:NPC   : PW Pseudocharge     =     7.660525
:NTO001: CHARGE SPHERE  1    =    56.097093

:NEC01: NUCLEAR AND ELECTRONIC CHARGE     59.00000    58.99954
     
       CHARGES OF OLD CHARGE DENSITY
:OTO   : INTERSTITIAL CHARGE =     2.903439
:OPC   : PW Pseudocharge     =     7.663363
:OTO001: CHARGE SPHERE  1    =    56.096561

:NEC02: NUCLEAR AND ELECTRONIC CHARGE     59.00000    59.00000
     
       CONVERGENCE TEST
:DTO001: DIFFERENCE IN SPHERE  1 =  0.0006595

:DIS  :  CHARGE DISTANCE       ( 0.0006595 for atom    1 spin 1)      0.0006595
 PW Mixed is           53
 
******************************************************
* MULTISECANT MIXING VER9 RELEASE 10.4.0              *
* Standard Mode with controls                        *
* Fixed density scale                                *
* Regularization       1.000E-04                     *
* Trust Upper Limit    5.000E+00                     *
* Max Number of Memory Steps    8                    *
******************************************************
 
:PWTMP   1.6893E+02  1.2500E+02  2.3438E+02
:PLANE:  PW TOTAL      3.0710 DISTAN   7.03E-04  2.29E-02 %
:CHARG:  CLM/ATOM    977.1934 DISTAN   8.84E-04  9.05E-05 %
 
Step History
        DMIX         DMIXT        Red     Pred      Trust     Lambda    MagRel    MagAbs     Beta
 22   7.4041E-02   7.4041E-02  9.70E-01  7.67E-03  1.37E-01  6.52E-01  2.68E-02  7.11E-04  1.00E+00
 23   1.7744E-01   1.7744E-01  9.14E-01  1.21E-02  1.65E-01  2.47E-01  5.68E-02  1.46E-03  1.00E+00
 24   8.6971E-02   8.6971E-02  1.02E+00  1.53E-01  2.99E-01  6.63E-01  3.70E-03  8.70E-05  8.47E-01
 25   2.1743E-01   2.1743E-01  9.15E-01  3.22E-01  1.53E-01  7.56E-01  5.18E-02  1.25E-03  6.78E-01
 26   1.3493E-01   1.3493E-01  8.09E-01  1.53E-01  2.76E-01  8.50E-01  1.18E-01  2.61E-03  8.47E-01
 27   1.0131E-01   7.5736E-02  7.05E-01  8.34E-02  6.24E-01  7.08E-01  1.80E-01  3.22E-03  1.00E+00
 28   1.3060E-01   1.1453E-01  2.20E-01  2.03E-01  8.32E-01  6.12E-01  4.68E-01  5.89E-03  1.00E+00
 29   1.4166E-01   1.4166E-01  1.08E+00  4.44E-01  1.11E+00  3.46E-01  9.17E-01  2.54E-03  1.00E+00
 30   8.4474E-02   8.4474E-02 -1.00E+00  3.86E-01  1.11E+00  1.00E+00  4.37E-01  1.31E-03  8.00E-01
:JACOBIANS    6.559E-01   1.762E+00
  
:NORMS:  1/Froebius, Min, Max, Used   0.5453E+00  0.5210E+00  0.2362E+01  0.6022E+00
:INFO :  Number of Memory Steps    8 Skipping   21
:INFO :  SLambda=    1.0000000000  Max    1.0000000000
:PREDicted Charge, CTotal, PW Trust    1.484E-03   1.484E-03   2.303E-03
:PREDicted DMix, Beta, BLim   8.2734E-01  2.2455E+00  1.3695E+00

Eigenvalues, unscaled except for SY+YY
   #     SY Real        SY Imag          SS             YY         SY+YY Real      SY+YY Imag
   1   3.247701E+00   0.000000E+00   2.090088E+00   7.699385E+00   1.094143E+01   0.000000E+00
   2   2.963455E-01   0.000000E+00   2.869635E-01   2.982938E-01   5.999565E-01   0.000000E+00
   3   1.497787E-03   0.000000E+00   1.768127E-03   1.396852E-03   3.284787E-03   0.000000E+00
   4   5.323193E-04   0.000000E+00   3.767469E-04   8.486020E-04   1.306363E-03   0.000000E+00
   5   1.658284E-05   0.000000E+00   1.491944E-05   4.179040E-05   6.734736E-05   0.000000E+00
   6   8.781624E-08   0.000000E+00   2.127424E-06   1.968174E-05   3.922118E-05   0.000000E+00
   7   4.899666E-06   8.894518E-07   6.397757E-07   1.338836E-05   2.025284E-05   0.000000E+00
   8   4.899666E-06  -8.894518E-07   4.924491E-08   3.949088E-07   5.855798E-07   0.000000E+00
 
:INFO :  Singular value  1.094E+01 Weight  1.000E+00 Projection -2.457E-04
:INFO :  Singular value  5.999E-01 Weight  1.000E+00 Projection -1.179E-04
:INFO :  Singular value  3.294E-03 Weight  9.482E-01 Projection  2.320E-02
:INFO :  Singular value  1.314E-03 Weight  7.446E-01 Projection  1.694E-03
:INFO :  Singular value  6.722E-05 Weight  7.566E-03 Projection -2.377E-04
:INFO :  Singular value  3.922E-05 Weight  2.588E-03 Projection -1.032E-04
:INFO :  Singular value  2.017E-05 Weight  6.859E-04 Projection -4.691E-05
:INFO :  Singular value  5.837E-07 Weight  5.747E-07 Projection  1.302E-07
:RANK :  ACTIVE   3.70/8  =  46.29 % ; YY RANK   3.32/8  =  41.49 %
 
:BLIM :  VZERO Control Off
:TRUST:  Step 1.48E+00  Charge 3.35E-03 (e) CTO  2.75E-03 (e) PW  3.85E-03 (e)
:DTRUS:  Lambda    1.732E-01 Increment    7.276E-12 Iterations    98 DMIX    2.098E-01
:INFOA:  Angle SubSpace to MSR1      0.47
:DIRM :  MEMORY  8/8  SCALE   1.000 RED  0.38 PRED  0.39 NEXT  0.36 
:INFO :  Limited by Atoms F by Step T

:TRAVE:  Charge 8.54E-04 (e) CTO  8.54E-04 (e) PW  1.31E-03 (e)
:DIRP :  |MSR1|= 9.356E-04 |PRATT|= 7.025E-04 ANGLE=   9.8 DEGREES
:DIRQ :  |MSR1|= 1.380E-03 |PRATT|= 8.843E-04 ANGLE=  25.0 DEGREES
:DIRT :  |MSR1|= 1.668E-03 |PRATT|= 1.129E-03 ANGLE=  21.4 DEGREES
:MIX  :   MSR1   REGULARIZATION:  7.70E-04 GREED: 0.21119  LMStep 0.92  1.4765 Step           
     
       CHARGES OF MIXED CHARGE DENSITY
:CTO   : INTERSTITIAL CHARGE =     2.902643
:CPC   : PW Pseudocharge     =     7.661217
:CTO001: CHARGE SPHERE  1    =    56.097357

:NEC03: NUCLEAR AND ELECTRONIC CHARGE     59.00000    59.00000

PW CHANGE     H    K    L      Current       Change    Residue
:PTO001:      0    0    0  4.50713229E-02 -1.255E-05 -9.162E-06
:PTO002:     -1   -1   -1 -1.36629709E-01  3.882E-05  2.762E-05
:PTO003:      0    0   -2  8.04461777E-02 -2.653E-05 -2.160E-05
:PTO004:      0   -2   -2  6.62380025E-02 -2.478E-05 -1.646E-05
:PTO005:     -1   -1   -3 -5.98767213E-02  2.361E-05  1.313E-05
:PTO006:     -2   -2   -2  1.52406077E-02 -7.344E-06 -3.161E-06
:PTO007:      0    0   -4  1.96473640E-03 -3.323E-07  8.138E-07
:PTO008:     -1   -3   -3  1.18831476E-03 -3.027E-06 -7.900E-06
:PTO009:      0   -2   -4 -3.93176604E-03  4.966E-06  8.464E-06
:PTO010:     -2   -2   -4 -7.59148659E-03  8.054E-06  1.139E-05
:PTO011:     -3   -3   -3  2.54691466E-03 -2.825E-06 -3.986E-06
:PTO012:     -1   -1   -5  8.25960448E-03 -6.670E-06 -8.678E-06

:ENE  : ********** TOTAL ENERGY IN Ry =       -18472.12786037

