
:LABEL1: Calculations in /home/ykent/GWIEN/example/Pr/aU/V6/case
:LABEL2: on didymium-2.cmpgroup.ameslab.gov at Fri Jul 10 13:18:39 CDT 2020
:LABEL3: using WIEN2k_19.1 (Release 25/6/2019) in /home/ykent/opt/src/WIEN2k_19.1
:LABEL4: using the command: run_lapw -cc 0.0001

:LABEL1: Calculations in /home/ykent/GWIEN/example/Pr/aU/V6/case
:LABEL2: on didymium-2.cmpgroup.ameslab.gov at Fri Jul 10 13:19:10 CDT 2020
:LABEL3: using WIEN2k_19.1 (Release 25/6/2019) in /home/ykent/opt/src/WIEN2k_19.1
:LABEL4: using the command: run_lapw -cc 0.0001
 Flat Integration
 New Mode for Coulomb Integral
 Consistent 3/8+Simpson combinations
 Extension of core to zero
 LDM version in phi
 Fifth-order quadrature in outwin


            ---------
:ITE001:  1. ITERATION
            ---------

:NATO :    1 INDEPENDENT AND    2 TOTAL ATOMS IN UNITCELL
       SUBSTANCE: aU                                                          

       LATTICE                      = CXY 
:POT  : POTENTIAL OPTION EX_LDA EC_LDA VX_LDA VC_LDA
:LAT  : LATTICE CONSTANTS=  5.47380 11.10771  9.58952    1.571    1.571    1.571
:VOL  : UNIT CELL VOLUME =     291.52801
       MODE OF CALCULATION IS       = RELA
       NON-SPINPOLARIZED CALCULATION
:IFFT  : FFT-parameters:   48   90   80 Factor: 2.00


   CONVERGENCE PARAMETER FOR PSEUDOCHARGE: NCON=  9
   MAXIMAL VALUE OF RMT(JATOM)*ABSK(NKK) : RK  =27.59917


:VKCOUL :  VK-COUL convergence: 0.243E-06
       ATOMNUMBER=  1 Pr1        VCOUL-ZERO =  0.56551E+00
:EFG001:                        EFG         =    -0.07149   *10**21  V / m**2
                               V20  TOT/SRF=    -0.06191    -0.07480
                               V22  TOT/SRF=     0.00958     0.01152
                               V22M TOT/SRF=     0.00000     0.00000
                               V21  TOT/SRF=     0.00000     0.00000
                               V21M TOT/SRF=     0.00000     0.00000

              0.04532    0.00000    0.00000        0.04532    0.00000    0.00000
              0.00000    0.02616    0.00000        0.00000    0.02616    0.00000
              0.00000    0.00000   -0.07149        0.00000    0.00000   -0.07149

         MAIN DIRECTIONS OF THE EFG   1.0000  0.0000  0.0000
                                      0.0000  1.0000  0.0000
                                      0.0000  0.0000  1.0000
:ANG001:  ANGLE WITH OLD X-AXIS =         0.0

:ETA001:                         ASYMM. ETA =     0.26798


     HELLMANN-FEYNMAN-FORCE IN mRy/a.u. = |F|  Fx       Fy             Fz
:FHF001:   1.ATOM    786.329896207016      0.000000000000      0.000000000000   -786.329896207016

:FIT001: LUSE= 13 SIGMA OF V-XC FIT FOR ATOM  1  0.2596245E-04
:FIT001: LUSE= 13 SIGMA OF V-XC FIT FOR ATOM  1  0.2596245E-04
:DEN  : DENSITY INTEGRAL  =        -14223.58721988   (Ry)
       ELS_POTENTIAL_AT Z=0 and Z=0.5:   0.95902   0.95902
       ELS_POTENTIAL_AT Y=0 and Y=0.5:  -0.01983  -0.01983
:VZERO:v0,v0c,v0x   0.23465   0.95902  -0.72436 v5,v5c,v5x   0.23465   0.95902  -0.72436
:VZERY:v0,v0c,v0x  -0.95963  -0.01983  -0.93980 v5,v5c,v5x  -0.95963  -0.01983  -0.93980
:VZERX:v0,v0c,v0x  -1.26241  -0.38391  -0.87850 v5,v5c,v5x  -1.26241  -0.38391  -0.87850
:LMAX-WF:   10   Non-Spherical LMAX:   4

          ATOMIC SPHERE DEPENDENT PARAMETERS FOR ATOM  Pr1       
:e__0001: OVERALL ENERGY PARAMETER IS    0.5000
          OVERALL BASIS SET ON ATOM IS LAPW
:E0_0001: E( 0)=    0.5000
             APW+lo
:E0_0001: E( 0)=   -1.4580   E(BOTTOM)=   -2.111   E(TOP)=   -0.805  4  5   238
             LOCAL ORBITAL
:E1_0001: E( 1)=    0.9000
             APW+lo
:E1_0001: E( 1)=    0.0019   E(BOTTOM)=   -0.978   E(TOP)=    0.982  3  4   242
             LOCAL ORBITAL
:E3_0001: E( 3)=    1.0086   E(BOTTOM)=    1.009   E(TOP)= -200.000  0 -1   102
             APW+lo
:E2_0001: E( 2)=    0.7490   E(BOTTOM)=    0.749   E(TOP)= -200.000  2 -1    86
             APW+lo

       K=   0.06250   0.00000   0.06250            1
:RKM  : MATRIX SIZE   297LOs:  40  RKM= 8.46  WEIGHT= 4.00  PGR:    
       EIGENVALUES ARE:
:EIG00001:      -1.5042617   -1.4245718   -0.3444803   -0.0796590   -0.0199066
:EIG00006:      -0.0009724    0.0195395    0.0258863    0.9584521    0.9663930
:EIG00011:       1.1232103    1.1653286    1.1666872    1.1709270    1.1965696
:EIG00016:       1.2338164    1.2360682    1.2464225    1.2484006    1.2585625
:EIG00021:       1.2632065    1.2682604    1.2794487    1.3090146    1.3114225
:EIG00026:       1.3230813    1.3668549    1.3819080    1.4476292    1.4893957
:EIG00031:       1.5373832    1.7185560    1.7319674    1.8156527    2.1122938
:EIG00036:       2.1609800    2.1936802
       ********************************************************

:KPT   :      NUMBER OF K-POINTS:   288
:GAP (global)   :    0.0    Ry =     0.0   eV (metal)
         Bandranges (emin - emax) and occupancy:
:BAN00005:   5   -0.250364   -0.019907  2.00000000
:BAN00006:   6   -0.213844    0.013747  2.00000000
:BAN00007:   7   -0.157355    0.023913  2.00000000
:BAN00008:   8   -0.049929    0.039739  2.00000000
:BAN00009:   9    0.874578    1.073652  2.00000000
:BAN00010:  10    0.927320    1.098692  2.00000000
:BAN00011:  11    0.972040    1.182433  2.00000000
:BAN00012:  12    1.051932    1.195522  1.98873832
:BAN00013:  13    1.092595    1.231665  1.44408691
:BAN00014:  14    1.151303    1.237068  0.54959584
:BAN00015:  15    1.183912    1.251643  0.01757894
:BAN00016:  16    1.201377    1.253815  0.00000000
:BAN00017:  17    1.228771    1.261939  0.00000000
:BAN00018:  18    1.237100    1.263356  0.00000000
:BAN00019:  19    1.244630    1.274024  0.00000000
:BAN00020:  20    1.250689    1.280466  0.00000000
        Energy to separate low and high energystates:    0.82458


:NOE  : NUMBER OF ELECTRONS          =   26.000

:FER  : F E R M I - ENERGY(TETRAH.M.)=   1.1892438010
:GMA  : POTENTIAL AND CHARGE CUT-OFF  12.00 Ry**.5

:POS001: ATOM   -1 X,Y,Z = 0.00000 0.89750 0.25000  MULT= 2  ZZ= 59.000  Pr1       

       LMMAX 16
       LM=   0 0  1 0  2 0  2 2  3 0  3 2  4 0  4 2  4 4  5 0  5 2  5 4  6 0  6 2  6 4  6 6

:CHA001: TOTAL VALENCE CHARGE INSIDE SPHERE   1 =   9.2519    (RMT=  2.3000 )
:PCS001: PARTIAL CHARGES SPHERE =  1 S,P,D,F,PX,PY,PZ,D-Z2,D-X2Y2,D-XY,D-XZ,D-YZ 
:QTL001: 1.9474 4.9645 1.1001 1.2363 1.6520 1.6495 1.6630 0.2191 0.2228 0.2106 0.2238 0.2238
        Q-s-low E-s-low   Q-p-low E-p-low   Q-d-low E-d-low   Q-f-low E-f-low
:EPL001:  1.8623 -1.4177    4.8247 -0.1319    0.0222 -0.1841    0.0066 -0.1892
        Q-s-hi  E-s-hi    Q-p-hi  E-p-hi    Q-d-hi  E-d-hi    Q-f-hi  E-f-hi 
:EPH001:  0.0851  1.0528    0.1398  1.0812    1.0778  1.0531    1.2297  1.1341

                      VXX         VYY         VZZ       UP TO R
:VZZ001:             2.79497     8.34765   -11.14262       2.300

:CHA  : TOTAL VALENCE CHARGE INSIDE UNIT CELL =      26.000000

:SUM  : SUM OF EIGENVALUES =           3.377864832


        1.ATOM      Pr1                  14 CORE STATES
       CORE-FORCE in mRy/a.u. = |F|      Fx             Fy             Fz
:FCO001:   1.ATOM    633.441351931234      0.000000000000      0.000000000000    633.441351931234

:1S 001: 1S               -3066.281499337 Ry
:2S 001: 2S                -492.047465530 Ry
:2PP001: 2P*               -465.145020306 Ry
:2P 001: 2P                -429.748247052 Ry
:3S 001: 3S                -105.146731720 Ry
:3PP001: 3P*                -93.684025717 Ry
:3P 001: 3P                 -86.676815997 Ry
:3DD001: 3D*                -66.602789222 Ry
:3D 001: 3D                 -65.091413892 Ry
:4S 001: 4S                 -19.840821663 Ry
:4PP001: 4P*                -15.548595660 Ry
:4P 001: 4P                 -14.022700885 Ry
:4DD001: 4D*                 -6.959105493 Ry
:4D 001: 4D                  -6.690312700 Ry
:CINT001 Core Integral Atom   1   45.998380

       DENSITY AT NUCLEUS
        JATOM        VALENCE       SEMI-CORE          CORE           TOTAL
:RTO001:   1      643.568408        0.000000   656818.678070   657462.246478
     
       CHARGES OF NEW CHARGE DENSITY
:NTO   : INTERSTITIAL CHARGE =     7.496260
:NPC   : PW Pseudocharge     =    18.101595
:NTO001: CHARGE SPHERE  1    =    55.250249

:NEC01: NUCLEAR AND ELECTRONIC CHARGE    118.00000   117.99676
     
       CHARGES OF OLD CHARGE DENSITY
:OTO   : INTERSTITIAL CHARGE =     6.232403
:OPC   : PW Pseudocharge     =    16.457589
:OTO001: CHARGE SPHERE  1    =    55.884450

:NEC02: NUCLEAR AND ELECTRONIC CHARGE    118.00000   118.00130
     
       CONVERGENCE TEST
:DTO001: DIFFERENCE IN SPHERE  1 =  1.1721135

:DIS  :  CHARGE DISTANCE       ( 1.1721135 for atom    1 spin 1)      1.1721135
 PW Mixed is          316
 
******************************************************
* MULTISECANT MIXING VER9 RELEASE 10.4.0              *
* Standard Mode with controls                        *
* Fixed density scale                                *
* Regularization       1.000E-04                     *
* Trust Upper Limit    5.000E+00                     *
* Max Number of Memory Steps    8                    *
******************************************************
 
:PWTMP   1.8960E+02  1.9467E+02  2.9153E+02
:PLANE:  PW TOTAL      5.5439 DISTAN   6.98E-01  1.26E+01 %
:CHARG:  CLM/ATOM   1382.0567 DISTAN   1.69E+00  1.22E-01 %
INFO: Reducing dbase  2.50000E-02 1.17211E+00 2.30917E-02
 
Step History
        DMIX         DMIXT        Red     Pred      Trust     Lambda    MagRel    MagAbs     Beta
  1   3.5000E-02   3.5000E-02 -1.00E+00  1.00E+00 -1.00E+01  1.00E+00  3.50E-02  3.50E-02  1.00E+00
:INFO :  Note, Pratt in use
INFO: Reducing dbase  2.30917E-02 1.17211E+00 2.13290E-02
:TRUST:  Step 3.75E-02  Charge 7.50E-02 (e) CTO  2.50E-01 (e) PW  3.50E-01 (e)
:DIRM :  MEMORY  0/ 8 SCALE   1.000
Performing Pseudo Compensation
Final Pseudo Compensation Rescaling     1.00000E+00
:MIX  :   PRATT  REGULARIZATION:  1.00E-04 GREED: 0.02500                  
     
       CHARGES OF MIXED CHARGE DENSITY
:CTO   : INTERSTITIAL CHARGE =     6.262811
:CPC   : PW Pseudocharge     =    17.265465
:CTO001: CHARGE SPHERE  1    =    55.868595

:NEC03: NUCLEAR AND ELECTRONIC CHARGE    118.00000   118.00000

PW CHANGE     H    K    L      Current       Change    Residue
:PTO001:      0    0    0  8.07067402E-02  2.892E-03  1.003E-02
:PTO003:      0    2    0  1.80467735E-02  1.201E-03  2.671E-03
:PTO004:     -1    1    0  8.54587728E-02  6.269E-03  9.249E-03
:PTO005:      0    2   -1 -9.88249434E-02 -7.360E-03 -8.714E-03
:PTO006:      0    0   -2 -5.12360410E-02 -3.819E-03 -4.280E-03
:PTO007:     -1    1   -1 -1.02820626E-01 -8.473E-03 -7.617E-03
:PTO008:      0    2   -2 -1.48439206E-02 -1.602E-03 -1.022E-03
:PTO009:     -1    1   -2 -7.06407424E-02 -8.541E-03 -7.269E-03
:PTO011:     -1    3    0 -9.87832672E-03 -1.574E-03 -1.697E-03
:PTO012:     -1    3   -1 -4.08088601E-02 -7.561E-03 -8.297E-03
:PTO013:      0    4    0 -6.81188381E-03 -1.523E-03 -1.686E-03
:PTO014:      0    2   -3  1.52826551E-02  3.467E-03  4.733E-03

:ENE  : ********** TOTAL ENERGY IN Ry =       -36944.44398308

       TOTAL FORCE IN mRy/a.u. = |F|     Fx             Fy             Fz     with/without FOR in case.in2
:FOR001:   1.ATOM        152.889          0.000          0.000       -152.889 partial forces
       TOTAL FORCE WITH RESPECT TO GLOBAL CARTESIAN COORDINATES:
:FCA001:   1.ATOM                         0.000       -152.889          0.000 partial forces
       TOTAL FORCE WITH RESPECT TO THE GLOBAL COORDINATE SYSTEM:
:FGL001:   1.ATOM                 0.000000000  -152.888544276     0.000000000 partial forces
 Flat Integration
 New Mode for Coulomb Integral
 Consistent 3/8+Simpson combinations
 Extension of core to zero
 LDM version in phi
 Fifth-order quadrature in outwin


            ---------
:ITE002:  2. ITERATION
            ---------

:NATO :    1 INDEPENDENT AND    2 TOTAL ATOMS IN UNITCELL
       SUBSTANCE: aU                                                          

       LATTICE                      = CXY 
:POT  : POTENTIAL OPTION EX_LDA EC_LDA VX_LDA VC_LDA
:LAT  : LATTICE CONSTANTS=  5.47380 11.10771  9.58952    1.571    1.571    1.571
:VOL  : UNIT CELL VOLUME =     291.52801
       MODE OF CALCULATION IS       = RELA
       NON-SPINPOLARIZED CALCULATION
:IFFT  : FFT-parameters:   48   90   80 Factor: 2.00


   CONVERGENCE PARAMETER FOR PSEUDOCHARGE: NCON=  9
   MAXIMAL VALUE OF RMT(JATOM)*ABSK(NKK) : RK  =27.59917


:VKCOUL :  VK-COUL convergence: 0.144E-06
       ATOMNUMBER=  1 Pr1        VCOUL-ZERO =  0.57284E+00
:EFG001:                        EFG         =    -0.35052   *10**21  V / m**2
                               V20  TOT/SRF=    -0.30356    -0.07451
                               V22  TOT/SRF=    -0.06026     0.01069
                               V22M TOT/SRF=     0.00000     0.00000
                               V21  TOT/SRF=     0.00000     0.00000
                               V21M TOT/SRF=     0.00000     0.00000

              0.11500    0.00000    0.00000        0.11500    0.00000    0.00000
              0.00000    0.23552    0.00000        0.00000    0.23552    0.00000
              0.00000    0.00000   -0.35052        0.00000    0.00000   -0.35052

         MAIN DIRECTIONS OF THE EFG   1.0000  0.0000  0.0000
                                      0.0000  1.0000  0.0000
                                      0.0000  0.0000  1.0000
:ANG001:  ANGLE WITH OLD X-AXIS =         0.0

:ETA001:                         ASYMM. ETA =     0.34384


     HELLMANN-FEYNMAN-FORCE IN mRy/a.u. = |F|  Fx       Fy             Fz
:FHF001:   1.ATOM    785.494975648421      0.000000000000      0.000000000000   -785.494975648421

:FIT001: LUSE= 13 SIGMA OF V-XC FIT FOR ATOM  1  0.2664392E-04
:FIT001: LUSE= 13 SIGMA OF V-XC FIT FOR ATOM  1  0.2664392E-04
:DEN  : DENSITY INTEGRAL  =        -14220.86123524   (Ry)
       ELS_POTENTIAL_AT Z=0 and Z=0.5:   0.96845   0.96845
       ELS_POTENTIAL_AT Y=0 and Y=0.5:  -0.01624  -0.01624
:VZERO:v0,v0c,v0x   0.24296   0.96845  -0.72549 v5,v5c,v5x   0.24296   0.96845  -0.72549
:VZERY:v0,v0c,v0x  -0.96058  -0.01624  -0.94434 v5,v5c,v5x  -0.96058  -0.01624  -0.94434
:VZERX:v0,v0c,v0x  -1.27644  -0.39086  -0.88557 v5,v5c,v5x  -1.27644  -0.39086  -0.88557
:LMAX-WF:   10   Non-Spherical LMAX:   4

          ATOMIC SPHERE DEPENDENT PARAMETERS FOR ATOM  Pr1       
:e__0001: OVERALL ENERGY PARAMETER IS    0.7000
          OVERALL BASIS SET ON ATOM IS LAPW
:E0_0001: E( 0)=    0.7000
             APW+lo
:E0_0001: E( 0)=   -1.4629   E(BOTTOM)=   -2.114   E(TOP)=   -0.812  4  5   236
             LOCAL ORBITAL
:E1_0001: E( 1)=    1.1000
             APW+lo
:E1_0001: E( 1)=   -0.0016   E(BOTTOM)=   -0.978   E(TOP)=    0.975  3  4   242
             LOCAL ORBITAL
:E3_0001: E( 3)=    1.2174   E(BOTTOM)=    0.997   E(TOP)=    1.437  0  1   154
             APW+lo
:E2_0001: E( 2)=    0.7498   E(BOTTOM)=    0.750   E(TOP)= -200.000  2 -1   118
             APW+lo

       K=   0.06250   0.00000   0.06250            1
:RKM  : MATRIX SIZE   297LOs:  40  RKM= 8.46  WEIGHT= 4.00  PGR:    
       EIGENVALUES ARE:
:EIG00001:      -1.5075438   -1.4286796   -0.3436640   -0.0812339   -0.0219808
:EIG00006:      -0.0029982    0.0175089    0.0235534    0.9631409    0.9712382
:EIG00011:       1.1226517    1.1583251    1.1610740    1.1617573    1.1871544
:EIG00016:       1.2237893    1.2295337    1.2351955    1.2365332    1.2452988
:EIG00021:       1.2508603    1.2564711    1.2661337    1.2934849    1.2974126
:EIG00026:       1.3102574    1.3663033    1.3778475    1.4476435    1.4896557
:EIG00031:       1.5374490    1.7181693    1.7333221    1.8143075    2.1050550
:EIG00036:       2.1525475    2.1877329
       ********************************************************

:KPT   :      NUMBER OF K-POINTS:   288
:GAP (global)   :    0.0    Ry =     0.0   eV (metal)
         Bandranges (emin - emax) and occupancy:
:BAN00005:   5   -0.250419   -0.021981  2.00000000
:BAN00006:   6   -0.214103    0.011585  2.00000000
:BAN00007:   7   -0.158105    0.021639  2.00000000
:BAN00008:   8   -0.051024    0.037274  2.00000000
:BAN00009:   9    0.880116    1.075275  2.00000000
:BAN00010:  10    0.932482    1.099078  2.00000000
:BAN00011:  11    0.976735    1.174330  2.00000000
:BAN00012:  12    1.054296    1.185326  1.98833146
:BAN00013:  13    1.092888    1.219040  1.43683811
:BAN00014:  14    1.146745    1.229742  0.55800527
:BAN00015:  15    1.175455    1.238108  0.01682516
:BAN00016:  16    1.192667    1.240423  0.00000000
:BAN00017:  17    1.217223    1.249366  0.00000000
:BAN00018:  18    1.225853    1.249870  0.00000000
:BAN00019:  19    1.232879    1.259954  0.00000000
:BAN00020:  20    1.239101    1.266109  0.00000000
        Energy to separate low and high energystates:    0.83012


:NOE  : NUMBER OF ELECTRONS          =   26.000

:FER  : F E R M I - ENERGY(TETRAH.M.)=   1.1810128323
:GMA  : POTENTIAL AND CHARGE CUT-OFF  12.00 Ry**.5

:POS001: ATOM   -1 X,Y,Z = 0.00000 0.89750 0.25000  MULT= 2  ZZ= 59.000  Pr1       

       LMMAX 16
       LM=   0 0  1 0  2 0  2 2  3 0  3 2  4 0  4 2  4 4  5 0  5 2  5 4  6 0  6 2  6 4  6 6

:CHA001: TOTAL VALENCE CHARGE INSIDE SPHERE   1 =   9.3358    (RMT=  2.3000 )
:PCS001: PARTIAL CHARGES SPHERE =  1 S,P,D,F,PX,PY,PZ,D-Z2,D-X2Y2,D-XY,D-XZ,D-YZ 
:QTL001: 1.9456 4.9652 1.0606 1.3609 1.6527 1.6497 1.6629 0.2105 0.2108 0.2046 0.2174 0.2173
        Q-s-low E-s-low   Q-p-low E-p-low   Q-d-low E-d-low   Q-f-low E-f-low
:EPL001:  1.8635 -1.4219    4.8345 -0.1328    0.0219 -0.1851    0.0068 -0.1905
        Q-s-hi  E-s-hi    Q-p-hi  E-p-hi    Q-d-hi  E-d-hi    Q-f-hi  E-f-hi 
:EPH001:  0.0821  1.0530    0.1307  1.0796    1.0387  1.0519    1.3541  1.1299

                      VXX         VYY         VZZ       UP TO R
:VZZ001:             1.92218     8.38666   -10.30884       2.300

:CHA  : TOTAL VALENCE CHARGE INSIDE UNIT CELL =      26.000000

:SUM  : SUM OF EIGENVALUES =           3.354328585


        1.ATOM      Pr1                  14 CORE STATES
       CORE-FORCE in mRy/a.u. = |F|      Fx             Fy             Fz
:FCO001:   1.ATOM    640.722613912098      0.000000000000      0.000000000000    640.722613912098

:1S 001: 1S               -3066.316112457 Ry
:2S 001: 2S                -492.081483021 Ry
:2PP001: 2P*               -465.179119460 Ry
:2P 001: 2P                -429.782310654 Ry
:3S 001: 3S                -105.179359661 Ry
:3PP001: 3P*                -93.716765424 Ry
:3P 001: 3P                 -86.709375251 Ry
:3DD001: 3D*                -66.635677939 Ry
:3D 001: 3D                 -65.124255729 Ry
:4S 001: 4S                 -19.865005080 Ry
:4PP001: 4P*                -15.572264308 Ry
:4P 001: 4P                 -14.045569111 Ry
:4DD001: 4D*                 -6.980534749 Ry
:4D 001: 4D                  -6.711466397 Ry
:CINT001 Core Integral Atom   1   45.998402

       DENSITY AT NUCLEUS
        JATOM        VALENCE       SEMI-CORE          CORE           TOTAL
:RTO001:   1      643.873085        0.000000   656820.530936   657464.404021
     
       CHARGES OF NEW CHARGE DENSITY
:NTO   : INTERSTITIAL CHARGE =     7.328385
:NPC   : PW Pseudocharge     =    18.020250
:NTO001: CHARGE SPHERE  1    =    55.334208

:NEC01: NUCLEAR AND ELECTRONIC CHARGE    118.00000   117.99680
     
       CHARGES OF OLD CHARGE DENSITY
:OTO   : INTERSTITIAL CHARGE =     6.262809
:OPC   : PW Pseudocharge     =    17.265466
:OTO001: CHARGE SPHERE  1    =    55.868595

:NEC02: NUCLEAR AND ELECTRONIC CHARGE    118.00000   118.00000
     
       CONVERGENCE TEST
:DTO001: DIFFERENCE IN SPHERE  1 =  0.9837297

:DIS  :  CHARGE DISTANCE       ( 0.9837297 for atom    1 spin 1)      0.9837297
 PW Mixed is          316
 
******************************************************
* MULTISECANT MIXING VER9 RELEASE 10.4.0              *
* Slow Mode, cautious                                *
* Fixed density scale                                *
* Regularization       1.000E-04                     *
* Step Trust Radius    0.75000                       *
* Trust Upper Limit    2.000E+00                     *
* Max Number of Memory Steps   12                    *
******************************************************
 
:PWTMP   1.8960E+02  1.9467E+02  2.9153E+02
:PLANE:  PW TOTAL      5.9143 DISTAN   3.37E-01  5.70E+00 %
:CHARG:  CLM/ATOM   1382.0501 DISTAN   1.43E+00  1.03E-01 %
 
Step History
        DMIX         DMIXT        Red     Pred      Trust     Lambda    MagRel    MagAbs     Beta
  1   3.5000E-02   3.5000E-02 -1.00E+00  1.00E+00 -1.00E+01  1.00E+00  3.50E-02  3.50E-02  1.00E+00
  2   2.5000E-02   2.5000E-02 -1.00E+00  1.00E+00 -1.00E+01  1.00E+00  2.50E-02  4.57E-02  1.00E+00
:JACOBIANS    3.622E-01   1.949E-02
  
:TRUST:  Step 4.57E-02  Charge 7.50E-02 (e) CTO  2.50E-01 (e) PW  3.50E-01 (e)
:DIRM :  MEMORY  1/12 SCALE   1.000
:MIX  :   PRATT  REGULARIZATION:  1.00E-04 GREED: 0.04569  Expand 1.83  0.0457 Step           
     
       CHARGES OF MIXED CHARGE DENSITY
:CTO   : INTERSTITIAL CHARGE =     6.278731
:CPC   : PW Pseudocharge     =    17.672793
:CTO001: CHARGE SPHERE  1    =    55.860635

:NEC03: NUCLEAR AND ELECTRONIC CHARGE    118.00000   118.00000

PW CHANGE     H    K    L      Current       Change    Residue
:PTO001:      0    0    0  8.21585675E-02  1.452E-03  6.282E-03
:PTO003:      0    2    0  1.86499717E-02  6.032E-04  1.471E-03
:PTO004:     -1    1    0  8.86059323E-02  3.147E-03  3.077E-03
:PTO005:      0    2   -1 -1.02519924E-01 -3.695E-03 -1.345E-03
:PTO006:      0    0   -2 -5.31535495E-02 -1.917E-03 -4.734E-04
:PTO007:     -1    1   -1 -1.07074512E-01 -4.254E-03  6.641E-04
:PTO008:      0    2   -2 -1.56482302E-02 -8.043E-04  5.839E-04
:PTO009:     -1    1   -2 -7.49285835E-02 -4.288E-03  1.095E-03
:PTO011:     -1    3    0 -1.06686037E-02 -7.903E-04 -1.692E-04
:PTO012:     -1    3   -1 -4.46046430E-02 -3.796E-03 -8.445E-04
:PTO013:      0    4    0 -7.57628998E-03 -7.644E-04 -1.563E-04
:PTO014:      0    2   -3  1.70232260E-02  1.741E-03  1.246E-03

:ENE  : ********** TOTAL ENERGY IN Ry =       -36944.40375144

       TOTAL FORCE IN mRy/a.u. = |F|     Fx             Fy             Fz     with/without FOR in case.in2
:FOR001:   1.ATOM        144.772          0.000          0.000       -144.772 partial forces
       TOTAL FORCE WITH RESPECT TO GLOBAL CARTESIAN COORDINATES:
:FCA001:   1.ATOM                         0.000       -144.772          0.000 partial forces
       TOTAL FORCE WITH RESPECT TO THE GLOBAL COORDINATE SYSTEM:
:FGL001:   1.ATOM                 0.000000000  -144.772361736     0.000000000 partial forces
 Flat Integration
 New Mode for Coulomb Integral
 Consistent 3/8+Simpson combinations
 Extension of core to zero
 LDM version in phi
 Fifth-order quadrature in outwin


            ---------
:ITE003:  3. ITERATION
            ---------

:NATO :    1 INDEPENDENT AND    2 TOTAL ATOMS IN UNITCELL
       SUBSTANCE: aU                                                          

       LATTICE                      = CXY 
:POT  : POTENTIAL OPTION EX_LDA EC_LDA VX_LDA VC_LDA
:LAT  : LATTICE CONSTANTS=  5.47380 11.10771  9.58952    1.571    1.571    1.571
:VOL  : UNIT CELL VOLUME =     291.52801
       MODE OF CALCULATION IS       = RELA
       NON-SPINPOLARIZED CALCULATION
:IFFT  : FFT-parameters:   48   90   80 Factor: 2.00


   CONVERGENCE PARAMETER FOR PSEUDOCHARGE: NCON=  9
   MAXIMAL VALUE OF RMT(JATOM)*ABSK(NKK) : RK  =27.59917


:VKCOUL :  VK-COUL convergence: 0.146E-06
       ATOMNUMBER=  1 Pr1        VCOUL-ZERO =  0.57657E+00
:EFG001:                        EFG         =    -0.49062   *10**21  V / m**2
                               V20  TOT/SRF=    -0.42489    -0.07438
                               V22  TOT/SRF=    -0.09533     0.01027
                               V22M TOT/SRF=     0.00000     0.00000
                               V21  TOT/SRF=     0.00000     0.00000
                               V21M TOT/SRF=     0.00000     0.00000

              0.14998    0.00000    0.00000        0.14998    0.00000    0.00000
              0.00000    0.34064    0.00000        0.00000    0.34064    0.00000
              0.00000    0.00000   -0.49062        0.00000    0.00000   -0.49062

         MAIN DIRECTIONS OF THE EFG   1.0000  0.0000  0.0000
                                      0.0000  1.0000  0.0000
                                      0.0000  0.0000  1.0000
:ANG001:  ANGLE WITH OLD X-AXIS =         0.0

:ETA001:                         ASYMM. ETA =     0.38860


     HELLMANN-FEYNMAN-FORCE IN mRy/a.u. = |F|  Fx       Fy             Fz
:FHF001:   1.ATOM    785.281314970992      0.000000000000      0.000000000000   -785.281314970992

:FIT001: LUSE= 13 SIGMA OF V-XC FIT FOR ATOM  1  0.2701052E-04
:FIT001: LUSE= 13 SIGMA OF V-XC FIT FOR ATOM  1  0.2701052E-04
:DEN  : DENSITY INTEGRAL  =        -14219.49947120   (Ry)
       ELS_POTENTIAL_AT Z=0 and Z=0.5:   0.97329   0.97329
       ELS_POTENTIAL_AT Y=0 and Y=0.5:  -0.01444  -0.01444
:VZERO:v0,v0c,v0x   0.24722   0.97329  -0.72607 v5,v5c,v5x   0.24722   0.97329  -0.72607
:VZERY:v0,v0c,v0x  -0.96105  -0.01444  -0.94661 v5,v5c,v5x  -0.96105  -0.01444  -0.94661
:VZERX:v0,v0c,v0x  -1.28341  -0.39439  -0.88901 v5,v5c,v5x  -1.28341  -0.39439  -0.88901
:LMAX-WF:   10   Non-Spherical LMAX:   4

          ATOMIC SPHERE DEPENDENT PARAMETERS FOR ATOM  Pr1       
:e__0001: OVERALL ENERGY PARAMETER IS    0.9000
          OVERALL BASIS SET ON ATOM IS LAPW
:E0_0001: E( 0)=    0.9000
             APW+lo
:E0_0001: E( 0)=   -1.4652   E(BOTTOM)=   -2.115   E(TOP)=   -0.816  4  5   240
             LOCAL ORBITAL
:E1_0001: E( 1)=    1.3000
             APW+lo
:E1_0001: E( 1)=   -0.0032   E(BOTTOM)=   -0.979   E(TOP)=    0.972  3  4   236
             LOCAL ORBITAL
:E3_0001: E( 3)=    1.2102   E(BOTTOM)=    0.992   E(TOP)=    1.428  0  1   127
             APW+lo
:E2_0001: E( 2)=    0.9000   E(BOTTOM)=    0.750   E(TOP)= -200.000  2 -1   116
             APW+lo

       K=   0.06250   0.00000   0.06250            1
:RKM  : MATRIX SIZE   297LOs:  40  RKM= 8.46  WEIGHT= 4.00  PGR:    
       EIGENVALUES ARE:
:EIG00001:      -1.5091499   -1.4306965   -0.3432067   -0.0819957   -0.0229719
:EIG00006:      -0.0039985    0.0165162    0.0224176    0.9655763    0.9737211
:EIG00011:       1.1220969    1.1545435    1.1570672    1.1579347    1.1824187
:EIG00016:       1.2176464    1.2266103    1.2294437    1.2312767    1.2387673
:EIG00021:       1.2447288    1.2508053    1.2595354    1.2859663    1.2907125
:EIG00026:       1.3045038    1.3665084    1.3763822    1.4480116    1.4900968
:EIG00031:       1.5378571    1.7184213    1.7343345    1.8142383    2.1061043
:EIG00036:       2.1536601    2.1890910    2.4059343    2.4312570    2.5388958
       ********************************************************

:KPT   :      NUMBER OF K-POINTS:   288
:GAP (global)   :    0.0    Ry =     0.0   eV (metal)
         Bandranges (emin - emax) and occupancy:
:BAN00005:   5   -0.250430   -0.022972  2.00000000
:BAN00006:   6   -0.214198    0.010509  2.00000000
:BAN00007:   7   -0.158449    0.020514  2.00000000
:BAN00008:   8   -0.051541    0.036068  2.00000000
:BAN00009:   9    0.882964    1.075953  2.00000000
:BAN00010:  10    0.935133    1.099108  2.00000000
:BAN00011:  11    0.979137    1.169924  2.00000000
:BAN00012:  12    1.055419    1.180181  1.98688601
:BAN00013:  13    1.092911    1.212755  1.43363375
:BAN00014:  14    1.143948    1.225429  0.56438412
:BAN00015:  15    1.171162    1.232516  0.01510478
:BAN00016:  16    1.188170    1.233805  0.00000000
:BAN00017:  17    1.211640    1.243068  0.00000000
:BAN00018:  18    1.220270    1.243257  0.00000000
:BAN00019:  19    1.226631    1.252973  0.00000000
:BAN00020:  20    1.233804    1.259060  0.00000000
        Energy to separate low and high energystates:    0.83296


:NOE  : NUMBER OF ELECTRONS          =   26.000

:FER  : F E R M I - ENERGY(TETRAH.M.)=   1.1766858408
:GMA  : POTENTIAL AND CHARGE CUT-OFF  12.00 Ry**.5

:POS001: ATOM   -1 X,Y,Z = 0.00000 0.89750 0.25000  MULT= 2  ZZ= 59.000  Pr1       

       LMMAX 16
       LM=   0 0  1 0  2 0  2 2  3 0  3 2  4 0  4 2  4 4  5 0  5 2  5 4  6 0  6 2  6 4  6 6

:CHA001: TOTAL VALENCE CHARGE INSIDE SPHERE   1 =   9.3802    (RMT=  2.3000 )
:PCS001: PARTIAL CHARGES SPHERE =  1 S,P,D,F,PX,PY,PZ,D-Z2,D-X2Y2,D-XY,D-XZ,D-YZ 
:QTL001: 1.9446 4.9653 1.0403 1.4266 1.6530 1.6498 1.6626 0.2063 0.2050 0.2014 0.2140 0.2136
        Q-s-low E-s-low   Q-p-low E-p-low   Q-d-low E-d-low   Q-f-low E-f-low
:EPL001:  1.8641 -1.4240    4.8394 -0.1333    0.0217 -0.1856    0.0068 -0.1909
        Q-s-hi  E-s-hi    Q-p-hi  E-p-hi    Q-d-hi  E-d-hi    Q-f-hi  E-f-hi 
:EPH001:  0.0806  1.0531    0.1259  1.0787    1.0185  1.0513    1.4199  1.1276

                      VXX         VYY         VZZ       UP TO R
:VZZ001:             1.37717     8.35473    -9.73190       2.300

:CHA  : TOTAL VALENCE CHARGE INSIDE UNIT CELL =      26.000009

:SUM  : SUM OF EIGENVALUES =           3.341842398


        1.ATOM      Pr1                  14 CORE STATES
       CORE-FORCE in mRy/a.u. = |F|      Fx             Fy             Fz
:FCO001:   1.ATOM    644.541410691918      0.000000000000      0.000000000000    644.541410691918

:1S 001: 1S               -3066.333438284 Ry
:2S 001: 2S                -492.098509813 Ry
:2PP001: 2P*               -465.196187250 Ry
:2P 001: 2P                -429.799360595 Ry
:3S 001: 3S                -105.195688827 Ry
:3PP001: 3P*                -93.733150707 Ry
:3P 001: 3P                 -86.725669939 Ry
:3DD001: 3D*                -66.652138042 Ry
:3D 001: 3D                 -65.140692297 Ry
:4S 001: 4S                 -19.877095601 Ry
:4PP001: 4P*                -15.584096741 Ry
:4P 001: 4P                 -14.056999932 Ry
:4DD001: 4D*                 -6.991244850 Ry
:4D 001: 4D                  -6.722038313 Ry
:CINT001 Core Integral Atom   1   45.998413

       DENSITY AT NUCLEUS
        JATOM        VALENCE       SEMI-CORE          CORE           TOTAL
:RTO001:   1      643.955898        0.000000   656821.460842   657465.416740
     
       CHARGES OF NEW CHARGE DENSITY
:NTO   : INTERSTITIAL CHARGE =     7.239572
:NPC   : PW Pseudocharge     =    17.977182
:NTO001: CHARGE SPHERE  1    =    55.378630

:NEC01: NUCLEAR AND ELECTRONIC CHARGE    118.00000   117.99683
     
       CHARGES OF OLD CHARGE DENSITY
:OTO   : INTERSTITIAL CHARGE =     6.278731
:OPC   : PW Pseudocharge     =    17.672793
:OTO001: CHARGE SPHERE  1    =    55.860635

:NEC02: NUCLEAR AND ELECTRONIC CHARGE    118.00000   118.00000
     
       CONVERGENCE TEST
:DTO001: DIFFERENCE IN SPHERE  1 =  0.8854649

:DIS  :  CHARGE DISTANCE       ( 0.8854649 for atom    1 spin 1)      0.8854649
 PW Mixed is          316
 
******************************************************
* MULTISECANT MIXING VER9 RELEASE 10.4.0              *
* Standard Mode with controls                        *
* Fixed density scale                                *
* Regularization       1.000E-04                     *
* Trust Upper Limit    5.000E+00                     *
* Max Number of Memory Steps    8                    *
******************************************************
 
:PWTMP   1.8960E+02  1.9467E+02  2.9153E+02
:PLANE:  PW TOTAL      6.1045 DISTAN   2.96E-01  4.84E+00 %
:CHARG:  CLM/ATOM   1382.0468 DISTAN   1.30E+00  9.39E-02 %
 
Step History
        DMIX         DMIXT        Red     Pred      Trust     Lambda    MagRel    MagAbs     Beta
  1   3.5000E-02   3.5000E-02 -1.00E+00  1.00E+00 -1.00E+01  1.00E+00  3.50E-02  3.50E-02  1.00E+00
  2   2.5000E-02   2.5000E-02  8.05E-01  1.00E+00 -1.00E+01  1.00E+00  2.50E-02  4.57E-02  1.00E+00
  3   4.5691E-02   4.5691E-02 -1.00E+00  1.00E+00 -1.00E+01  1.00E+00  4.57E-02  6.71E-02  1.00E+00
:JACOBIANS    5.647E-01   2.597E-02
  
:NORMS:  1/Froebius, Min, Max, Used   0.8384E+00  0.4454E+00  0.8909E+00  0.8384E+00
:INFO :  Number of Memory Steps    2 Skipping    0
:INFO :  SLambda=    1.2027968823  Max    1.2027968823
:PREDicted Charge, CTotal, PW Trust    1.451E-02   2.901E-02   5.017E-01
:PREDicted DMix, Beta, BLim   5.1534E-02  1.6053E+00  1.1365E+00

Eigenvalues, unscaled except for SY+YY
   #     SY Real        SY Imag          SS             YY         SY+YY Real      SY+YY Imag
   1   1.502497E+00   0.000000E+00   1.405678E+00   1.999859E+00   3.807045E+00   0.000000E+00
   2   3.530509E-14   0.000000E+00  -1.110223E-16   1.413244E-04   1.537870E-04   0.000000E+00
 
:INFO :  Singular value  3.807E+00 Weight  1.000E+00 Projection -2.243E-01
:INFO :  Singular value  1.538E-04 Weight  3.716E-01 Projection -2.566E+01
:RANK :  ACTIVE   1.37/2  =  68.58 % ; YY RANK   1.33/2  =  66.65 %
 
:BLIM :  VZERO Control Off
:TRUST:  Step 2.77E-01  Charge 7.50E-02 (e) CTO  2.50E-01 (e) PW  3.85E-01 (e)
:DIRM :  MEMORY  2/8  SCALE   1.000 RED  0.91 PRED  1.00 NEXT  0.80 
:TRAVE:  Charge 2.12E-02 (e) CTO  4.24E-02 (e) PW  2.20E-01 (e)
:DIRP :  |MSR1|= 1.557E-01 |PRATT|= 2.957E-01 ANGLE= 102.7 DEGREES
:DIRQ :  |MSR1|= 5.934E-02 |PRATT|= 1.298E+00 ANGLE=  10.4 DEGREES
:DIRT :  |MSR1|= 1.666E-01 |PRATT|= 1.331E+00 ANGLE=  72.8 DEGREES
:MIX  :   MSE1   REGULARIZATION:  2.00E-04 GREED: 0.04469  Newton 1.00  0.1252                
     
       CHARGES OF MIXED CHARGE DENSITY
:CTO   : INTERSTITIAL CHARGE =     6.321171
:CPC   : PW Pseudocharge     =    17.969169
:CTO001: CHARGE SPHERE  1    =    55.839415

:NEC03: NUCLEAR AND ELECTRONIC CHARGE    118.00000   118.00000

PW CHANGE     H    K    L      Current       Change    Residue
:PTO001:      0    0    0  8.33207728E-02  1.162E-03  4.378E-03
:PTO003:      0    2    0  1.91394113E-02  4.894E-04  8.805E-04
:PTO004:     -1    1    0  9.08361818E-02  2.230E-03 -2.075E-05
:PTO005:      0    2   -1 -1.05042013E-01 -2.522E-03  2.349E-03
:PTO006:      0    0   -2 -5.44451340E-02 -1.292E-03  1.438E-03
:PTO007:     -1    1   -1 -1.09827352E-01 -2.753E-03  4.844E-03
:PTO008:      0    2   -2 -1.61332819E-02 -4.851E-04  1.401E-03
:PTO009:     -1    1   -2 -7.76907057E-02 -2.762E-03  5.312E-03
:PTO011:     -1    3    0 -1.11683070E-02 -4.997E-04  6.141E-04
:PTO012:     -1    3   -1 -4.71138421E-02 -2.509E-03  2.921E-03
:PTO013:      0    4    0 -8.08577981E-03 -5.095E-04  6.134E-04
:PTO014:      0    2   -3  1.82208712E-02  1.198E-03 -5.103E-04

:ENE  : ********** TOTAL ENERGY IN Ry =       -36944.38637188

       TOTAL FORCE IN mRy/a.u. = |F|     Fx             Fy             Fz     with/without FOR in case.in2
:FOR001:   1.ATOM        140.740          0.000          0.000       -140.740 partial forces
       TOTAL FORCE WITH RESPECT TO GLOBAL CARTESIAN COORDINATES:
:FCA001:   1.ATOM                         0.000       -140.740          0.000 partial forces
       TOTAL FORCE WITH RESPECT TO THE GLOBAL COORDINATE SYSTEM:
:FGL001:   1.ATOM                 0.000000000  -140.739904279     0.000000000 partial forces
 Flat Integration
 New Mode for Coulomb Integral
 Consistent 3/8+Simpson combinations
 Extension of core to zero
 LDM version in phi
 Fifth-order quadrature in outwin


            ---------
:ITE004:  4. ITERATION
            ---------

:NATO :    1 INDEPENDENT AND    2 TOTAL ATOMS IN UNITCELL
       SUBSTANCE: aU                                                          

       LATTICE                      = CXY 
:POT  : POTENTIAL OPTION EX_LDA EC_LDA VX_LDA VC_LDA
:LAT  : LATTICE CONSTANTS=  5.47380 11.10771  9.58952    1.571    1.571    1.571
:VOL  : UNIT CELL VOLUME =     291.52801
       MODE OF CALCULATION IS       = RELA
       NON-SPINPOLARIZED CALCULATION
:IFFT  : FFT-parameters:   48   90   80 Factor: 2.00


   CONVERGENCE PARAMETER FOR PSEUDOCHARGE: NCON=  9
   MAXIMAL VALUE OF RMT(JATOM)*ABSK(NKK) : RK  =27.59917


:VKCOUL :  VK-COUL convergence: 0.146E-06
       ATOMNUMBER=  1 Pr1        VCOUL-ZERO =  0.58092E+00
:EFG001:                        EFG         =    -0.67425   *10**21  V / m**2
                               V20  TOT/SRF=    -0.58392    -0.07271
                               V22  TOT/SRF=    -0.33527     0.00843
                               V22M TOT/SRF=     0.00000     0.00000
                               V21  TOT/SRF=     0.00000     0.00000
                               V21M TOT/SRF=     0.00000     0.00000

              0.00185    0.00000    0.00000        0.00185    0.00000    0.00000
              0.00000    0.67239    0.00000        0.00000    0.67239    0.00000
              0.00000    0.00000   -0.67425        0.00000    0.00000   -0.67425

         MAIN DIRECTIONS OF THE EFG   1.0000  0.0000  0.0000
                                      0.0000  1.0000  0.0000
                                      0.0000  0.0000  1.0000
:ANG001:  ANGLE WITH OLD X-AXIS =         0.0

:ETA001:                         ASYMM. ETA =     0.99450


     HELLMANN-FEYNMAN-FORCE IN mRy/a.u. = |F|  Fx       Fy             Fz
:FHF001:   1.ATOM    769.446500401734      0.000000000000      0.000000000000   -769.446500401734

:FIT001: LUSE= 13 SIGMA OF V-XC FIT FOR ATOM  1  0.3081993E-04
:FIT001: LUSE= 13 SIGMA OF V-XC FIT FOR ATOM  1  0.3081993E-04
:DEN  : DENSITY INTEGRAL  =        -14215.23370463   (Ry)
       ELS_POTENTIAL_AT Z=0 and Z=0.5:   0.98054   0.98054
       ELS_POTENTIAL_AT Y=0 and Y=0.5:  -0.01197  -0.01197
:VZERO:v0,v0c,v0x   0.25286   0.98054  -0.72768 v5,v5c,v5x   0.25286   0.98054  -0.72768
:VZERY:v0,v0c,v0x  -0.96126  -0.01197  -0.94929 v5,v5c,v5x  -0.96126  -0.01197  -0.94929
:VZERX:v0,v0c,v0x  -1.28993  -0.39754  -0.89240 v5,v5c,v5x  -1.28993  -0.39754  -0.89240
:LMAX-WF:   10   Non-Spherical LMAX:   4

          ATOMIC SPHERE DEPENDENT PARAMETERS FOR ATOM  Pr1       
:e__0001: OVERALL ENERGY PARAMETER IS    0.9511
          OVERALL BASIS SET ON ATOM IS LAPW
:E0_0001: E( 0)=    0.9511
             APW+lo
:E0_0001: E( 0)=   -1.4775   E(BOTTOM)=   -2.124   E(TOP)=   -0.831  4  5   235
             LOCAL ORBITAL
:E1_0001: E( 1)=    1.3511
             APW+lo
:E1_0001: E( 1)=   -0.0135   E(BOTTOM)=   -0.985   E(TOP)=    0.958  3  4   237
             LOCAL ORBITAL
:E3_0001: E( 3)=    1.1852   E(BOTTOM)=    0.971   E(TOP)=    1.399  0  1   114
             APW+lo
:E2_0001: E( 2)=    0.9511   E(BOTTOM)=    0.746   E(TOP)= -200.000  2 -1   124
             APW+lo

       K=   0.06250   0.00000   0.06250            1
:RKM  : MATRIX SIZE   297LOs:  40  RKM= 8.46  WEIGHT= 4.00  PGR:    
       EIGENVALUES ARE:
:EIG00001:      -1.5192752   -1.4419834   -0.3474984   -0.0901672   -0.0317390
:EIG00006:      -0.0124847    0.0082176    0.0135203    0.9661541    0.9743407
:EIG00011:       1.1138743    1.1376884    1.1384597    1.1425014    1.1636991
:EIG00016:       1.1952207    1.2062784    1.2077482    1.2152880    1.2166799
:EIG00021:       1.2220778    1.2299362    1.2358102    1.2601155    1.2674565
:EIG00026:       1.2852452    1.3619372    1.3678956    1.4436333    1.4857594
:EIG00031:       1.5336669    1.7139924    1.7316451    1.8092772    2.1032676
:EIG00036:       2.1510330    2.1872448    2.4039091    2.4310016    2.5377910
       ********************************************************

:KPT   :      NUMBER OF K-POINTS:   288
:GAP (global)   :    0.0    Ry =     0.0   eV (metal)
         Bandranges (emin - emax) and occupancy:
:BAN00005:   5   -0.255943   -0.031739  2.00000000
:BAN00006:   6   -0.220386    0.001826  2.00000000
:BAN00007:   7   -0.165347    0.011675  2.00000000
:BAN00008:   8   -0.058717    0.026985  2.00000000
:BAN00009:   9    0.884806    1.071294  2.00000000
:BAN00010:  10    0.936272    1.092592  2.00000000
:BAN00011:  11    0.979519    1.151771  2.00000000
:BAN00012:  12    1.052292    1.160607  1.98879139
:BAN00013:  13    1.086509    1.190089  1.40916750
:BAN00014:  14    1.129750    1.205781  0.59253740
:BAN00015:  15    1.153532    1.209590  0.00950371
:BAN00016:  16    1.169522    1.211065  0.00000000
:BAN00017:  17    1.190816    1.219921  0.00000000
:BAN00018:  18    1.199195    1.220305  0.00000000
:BAN00019:  19    1.208259    1.228896  0.00000000
:BAN00020:  20    1.215031    1.234239  0.00000000
        Energy to separate low and high energystates:    0.83481


:NOE  : NUMBER OF ELECTRONS          =   26.000

:FER  : F E R M I - ENERGY(TETRAH.M.)=   1.1587390404
:GMA  : POTENTIAL AND CHARGE CUT-OFF  12.00 Ry**.5

:POS001: ATOM   -1 X,Y,Z = 0.00000 0.89750 0.25000  MULT= 2  ZZ= 59.000  Pr1       

       LMMAX 16
       LM=   0 0  1 0  2 0  2 2  3 0  3 2  4 0  4 2  4 4  5 0  5 2  5 4  6 0  6 2  6 4  6 6

:CHA001: TOTAL VALENCE CHARGE INSIDE SPHERE   1 =   9.5060    (RMT=  2.3000 )
:PCS001: PARTIAL CHARGES SPHERE =  1 S,P,D,F,PX,PY,PZ,D-Z2,D-X2Y2,D-XY,D-XZ,D-YZ 
:QTL001: 1.9413 4.9654 0.9823 1.6139 1.6536 1.6499 1.6618 0.1939 0.1887 0.1924 0.2035 0.2039
        Q-s-low E-s-low   Q-p-low E-p-low   Q-d-low E-d-low   Q-f-low E-f-low
:EPL001:  1.8656 -1.4355    4.8525 -0.1403    0.0212 -0.1923    0.0067 -0.1976
        Q-s-hi  E-s-hi    Q-p-hi  E-p-hi    Q-d-hi  E-d-hi    Q-f-hi  E-f-hi 
:EPH001:  0.0757  1.0465    0.1129  1.0698    0.9611  1.0436    1.6072  1.1147

                      VXX         VYY         VZZ       UP TO R
:VZZ001:             0.09441     8.21676    -8.31117       2.300

:CHA  : TOTAL VALENCE CHARGE INSIDE UNIT CELL =      26.000000

:SUM  : SUM OF EIGENVALUES =           3.150349048


        1.ATOM      Pr1                  14 CORE STATES
       CORE-FORCE in mRy/a.u. = |F|      Fx             Fy             Fz
:FCO001:   1.ATOM    648.522326479705      0.000000000000      0.000000000000    648.522326479705

:1S 001: 1S               -3066.384600364 Ry
:2S 001: 2S                -492.148673291 Ry
:2PP001: 2P*               -465.246458320 Ry
:2P 001: 2P                -429.849581341 Ry
:3S 001: 3S                -105.244350120 Ry
:3PP001: 3P*                -93.781942978 Ry
:3P 001: 3P                 -86.774242338 Ry
:3DD001: 3D*                -66.701074638 Ry
:3D 001: 3D                 -65.189574090 Ry
:4S 001: 4S                 -19.914991782 Ry
:4PP001: 4P*                -15.621322381 Ry
:4P 001: 4P                 -14.093188037 Ry
:4DD001: 4D*                 -7.025546955 Ry
:4D 001: 4D                  -6.755981376 Ry
:CINT001 Core Integral Atom   1   45.998443

       DENSITY AT NUCLEUS
        JATOM        VALENCE       SEMI-CORE          CORE           TOTAL
:RTO001:   1      643.886988        0.000000   656823.857133   657467.744120
     
       CHARGES OF NEW CHARGE DENSITY
:NTO   : INTERSTITIAL CHARGE =     6.987910
:NPC   : PW Pseudocharge     =    17.853917
:NTO001: CHARGE SPHERE  1    =    55.504486

:NEC01: NUCLEAR AND ELECTRONIC CHARGE    118.00000   117.99688
     
       CHARGES OF OLD CHARGE DENSITY
:OTO   : INTERSTITIAL CHARGE =     6.321171
:OPC   : PW Pseudocharge     =    17.969169
:OTO001: CHARGE SPHERE  1    =    55.839415

:NEC02: NUCLEAR AND ELECTRONIC CHARGE    118.00000   118.00000
     
       CONVERGENCE TEST
:DTO001: DIFFERENCE IN SPHERE  1 =  0.6117917

:DIS  :  CHARGE DISTANCE       ( 0.6117917 for atom    1 spin 1)      0.6117917
 PW Mixed is          316
 
******************************************************
* MULTISECANT MIXING VER9 RELEASE 10.4.0              *
* Standard Mode with controls                        *
* Fixed density scale                                *
* Regularization       1.000E-04                     *
* Trust Upper Limit    5.000E+00                     *
* Max Number of Memory Steps    8                    *
******************************************************
 
:PWTMP   1.8960E+02  1.9467E+02  2.9153E+02
:PLANE:  PW TOTAL      6.2402 DISTAN   3.37E-01  5.40E+00 %
:CHARG:  CLM/ATOM   1382.0364 DISTAN   9.33E-01  6.75E-02 %
 
Step History
        DMIX         DMIXT        Red     Pred      Trust     Lambda    MagRel    MagAbs     Beta
  1   3.5000E-02   3.5000E-02 -1.00E+00  1.00E+00 -1.00E+01  1.00E+00  3.50E-02  3.50E-02  1.00E+00
  2   2.5000E-02   2.5000E-02  8.05E-01  1.00E+00 -1.00E+01  1.00E+00  2.50E-02  4.57E-02  1.00E+00
  3   4.5691E-02   4.5691E-02  9.06E-01  1.00E+00 -1.00E+01  1.20E+00  4.57E-02  6.71E-02  1.00E+00
  4   4.4690E-02   4.4690E-02 -1.00E+00  7.95E-01  2.77E-01  1.00E+00  1.25E-01  1.67E-01  1.00E+00
:JACOBIANS    7.865E-01   7.910E-02
  
:NORMS:  1/Froebius, Min, Max, Used   0.5705E+00  0.3918E+00  0.1001E+01  0.5769E+00
:INFO :  Number of Memory Steps    3 Skipping    0
:INFO :  SLambda=    1.8848711450  Max    1.8848711450
:PREDicted Charge, CTotal, PW Trust    6.824E-02   1.365E-01   5.206E-02
:PREDicted DMix, Beta, BLim   2.1383E-01  7.0151E-02  8.2836E-01

Eigenvalues, unscaled except for SY+YY
   #     SY Real        SY Imag          SS             YY         SY+YY Real      SY+YY Imag
   1   1.224519E+00   0.000000E+00   9.706026E-01   2.916550E+00   5.188492E+00   0.000000E+00
   2   2.651798E-02   0.000000E+00   5.809793E-03   8.343375E-02   1.695354E-01   0.000000E+00
   3   2.426331E-15   0.000000E+00  -9.136019E-17   1.590332E-05   1.687008E-05   0.000000E+00
 
:INFO :  Singular value  5.189E+00 Weight  1.000E+00 Projection -1.549E-01
:INFO :  Singular value  1.695E-01 Weight  1.000E+00 Projection -2.573E+00
:INFO :  Singular value  1.687E-05 Weight  3.335E-03 Projection  4.958E-02
:RANK :  ACTIVE   2.00/3  =  66.78 % ; YY RANK   2.00/3  =  66.77 %
 
:DLIM :  Beta Active  8.000E-01
:BLIM :  VZERO Control Off
:TRUST:  Step 5.53E-01  Charge 7.50E-02 (e) CTO  2.50E-01 (e) PW  3.85E-01 (e)
:DIRM :  MEMORY  3/8  SCALE   1.000 RED  0.75 PRED  0.80 NEXT  0.45 BETA  0.80
:TRAVE:  Charge 2.90E-02 (e) CTO  5.80E-02 (e) PW  2.10E-01 (e)
:DIRP :  |MSR1|= 2.472E-01 |PRATT|= 3.372E-01 ANGLE=  32.0 DEGREES
:DIRQ :  |MSR1|= 1.309E-01 |PRATT|= 9.335E-01 ANGLE=  24.6 DEGREES
:DIRT :  |MSR1|= 2.797E-01 |PRATT|= 9.925E-01 ANGLE=  49.1 DEGREES
:MIX  :   MSE1   REGULARIZATION:  2.92E-04 GREED: 0.11172  Newton 1.00  0.2818                
     
       CHARGES OF MIXED CHARGE DENSITY
:CTO   : INTERSTITIAL CHARGE =     6.394701
:CPC   : PW Pseudocharge     =    17.590108
:CTO001: CHARGE SPHERE  1    =    55.802650

:NEC03: NUCLEAR AND ELECTRONIC CHARGE    118.00000   118.00000

PW CHANGE     H    K    L      Current       Change    Residue
:PTO001:      0    0    0  8.22727414E-02 -1.048E-03  1.930E-03
:PTO003:      0    2    0  1.87952953E-02 -3.441E-04  3.691E-04
:PTO004:     -1    1    0  8.78588861E-02 -2.977E-03 -2.181E-03
:PTO005:      0    2   -1 -1.01041496E-01  4.001E-03  4.882E-03
:PTO006:      0    0   -2 -5.23267994E-02  2.118E-03  2.685E-03
:PTO007:     -1    1   -1 -1.04727021E-01  5.100E-03  7.346E-03
:PTO008:      0    2   -2 -1.50021876E-02  1.131E-03  1.917E-03
:PTO009:     -1    1   -2 -7.24394783E-02  5.251E-03  7.893E-03
:PTO011:     -1    3    0 -1.02168532E-02  9.515E-04  1.083E-03
:PTO012:     -1    3   -1 -4.27783870E-02  4.335E-03  5.360E-03
:PTO013:      0    4    0 -7.20907181E-03  8.767E-04  1.141E-03
:PTO014:      0    2   -3  1.64034307E-02 -1.817E-03 -1.764E-03

:ENE  : ********** TOTAL ENERGY IN Ry =       -36944.34844459

       TOTAL FORCE IN mRy/a.u. = |F|     Fx             Fy             Fz     with/without FOR in case.in2
:FOR001:   1.ATOM        120.924          0.000          0.000       -120.924 partial forces
       TOTAL FORCE WITH RESPECT TO GLOBAL CARTESIAN COORDINATES:
:FCA001:   1.ATOM                         0.000       -120.924          0.000 partial forces
       TOTAL FORCE WITH RESPECT TO THE GLOBAL COORDINATE SYSTEM:
:FGL001:   1.ATOM                 0.000000000  -120.924173922     0.000000000 partial forces
 Flat Integration
 New Mode for Coulomb Integral
 Consistent 3/8+Simpson combinations
 Extension of core to zero
 LDM version in phi
 Fifth-order quadrature in outwin


            ---------
:ITE005:  5. ITERATION
            ---------

:NATO :    1 INDEPENDENT AND    2 TOTAL ATOMS IN UNITCELL
       SUBSTANCE: aU                                                          

       LATTICE                      = CXY 
:POT  : POTENTIAL OPTION EX_LDA EC_LDA VX_LDA VC_LDA
:LAT  : LATTICE CONSTANTS=  5.47380 11.10771  9.58952    1.571    1.571    1.571
:VOL  : UNIT CELL VOLUME =     291.52801
       MODE OF CALCULATION IS       = RELA
       NON-SPINPOLARIZED CALCULATION
:IFFT  : FFT-parameters:   48   90   80 Factor: 2.00


   CONVERGENCE PARAMETER FOR PSEUDOCHARGE: NCON=  9
   MAXIMAL VALUE OF RMT(JATOM)*ABSK(NKK) : RK  =27.59917


:VKCOUL :  VK-COUL convergence: 0.144E-06
       ATOMNUMBER=  1 Pr1        VCOUL-ZERO =  0.58279E+00
:EFG001:                        EFG         =     2.00001   *10**21  V / m**2
                               V20  TOT/SRF=    -1.08943    -0.06684
                               V22  TOT/SRF=    -1.37103     0.00045
                               V22M TOT/SRF=     0.00000     0.00000
                               V21  TOT/SRF=     0.00000     0.00000
                               V21M TOT/SRF=     0.00000     0.00000

             -0.74205    0.00000    0.00000       -0.74205    0.00000    0.00000
              0.00000    2.00001    0.00000        0.00000    2.00001    0.00000
              0.00000    0.00000   -1.25797        0.00000    0.00000   -1.25797

         MAIN DIRECTIONS OF THE EFG   1.0000  0.0000  0.0000
                                      0.0000  1.0000  0.0000
                                      0.0000  0.0000  1.0000
:ANG001:  ANGLE WITH OLD X-AXIS =         0.0

:ETA001:                         ASYMM. ETA =     0.25796


     HELLMANN-FEYNMAN-FORCE IN mRy/a.u. = |F|  Fx       Fy             Fz
:FHF001:   1.ATOM    775.319514487980      0.000000000000      0.000000000000   -775.319514487980

:FIT001: LUSE= 13 SIGMA OF V-XC FIT FOR ATOM  1  0.4375709E-04
:FIT001: LUSE= 13 SIGMA OF V-XC FIT FOR ATOM  1  0.4375709E-04
:DEN  : DENSITY INTEGRAL  =        -14207.48550977   (Ry)
       ELS_POTENTIAL_AT Z=0 and Z=0.5:   0.98732   0.98732
       ELS_POTENTIAL_AT Y=0 and Y=0.5:  -0.00796  -0.00796
:VZERO:v0,v0c,v0x   0.25692   0.98732  -0.73040 v5,v5c,v5x   0.25692   0.98732  -0.73040
:VZERY:v0,v0c,v0x  -0.95854  -0.00796  -0.95059 v5,v5c,v5x  -0.95854  -0.00796  -0.95059
:VZERX:v0,v0c,v0x  -1.28774  -0.39593  -0.89181 v5,v5c,v5x  -1.28774  -0.39593  -0.89181
:LMAX-WF:   10   Non-Spherical LMAX:   4

          ATOMIC SPHERE DEPENDENT PARAMETERS FOR ATOM  Pr1       
:e__0001: OVERALL ENERGY PARAMETER IS    0.9562
          OVERALL BASIS SET ON ATOM IS LAPW
:E0_0001: E( 0)=    0.9562
             APW+lo
:E0_0001: E( 0)=   -1.5057   E(BOTTOM)=   -2.146   E(TOP)=   -0.865  4  5   232
             LOCAL ORBITAL
:E1_0001: E( 1)=    1.3562
             APW+lo
:E1_0001: E( 1)=   -0.0383   E(BOTTOM)=   -1.003   E(TOP)=    0.926  3  4   240
             LOCAL ORBITAL
:E3_0001: E( 3)=    1.1355   E(BOTTOM)=    0.928   E(TOP)=    1.343  0  1   115
             APW+lo
:E2_0001: E( 2)=    0.9562   E(BOTTOM)=    0.731   E(TOP)= -200.000  2 -1   122
             APW+lo

       K=   0.06250   0.00000   0.06250            1
:RKM  : MATRIX SIZE   297LOs:  40  RKM= 8.46  WEIGHT= 4.00  PGR:    
       EIGENVALUES ARE:
:EIG00001:      -1.5437430   -1.4687062   -0.3602977   -0.1123370   -0.0549542
:EIG00006:      -0.0341538   -0.0121056   -0.0090489    0.9604111    0.9683860
:EIG00011:       1.0880016    1.0986013    1.0990132    1.1068912    1.1245201
:EIG00016:       1.1497978    1.1598956    1.1623997    1.1682167    1.1741384
:EIG00021:       1.1828858    1.1857081    1.1870220    1.2091904    1.2251644
:EIG00026:       1.2544658    1.3489912    1.3502170    1.4302280    1.4719074
:EIG00031:       1.5210419    1.7004001    1.7212039    1.7952180    2.0921352
:EIG00036:       2.1403491    2.1775197    2.3946521    2.4241223    2.5306405
       ********************************************************

:KPT   :      NUMBER OF K-POINTS:   288
:GAP (global)   :    0.0    Ry =     0.0   eV (metal)
         Bandranges (emin - emax) and occupancy:
:BAN00005:   5   -0.270531   -0.054954  2.00000000
:BAN00006:   6   -0.238253   -0.020182  2.00000000
:BAN00007:   7   -0.184816   -0.010677  2.00000000
:BAN00008:   8   -0.077537    0.004104  2.00000000
:BAN00009:   9    0.881637    1.053961  2.00000000
:BAN00010:  10    0.931288    1.071721  2.00000000
:BAN00011:  11    0.972876    1.118620  2.00000000
:BAN00012:  12    1.038656    1.123717  1.98043460
:BAN00013:  13    1.066736    1.144614  1.32239875
:BAN00014:  14    1.095957    1.157994  0.69071200
:BAN00015:  15    1.115814    1.161308  0.00645465
:BAN00016:  16    1.128328    1.163671  0.00000000
:BAN00017:  17    1.148126    1.173758  0.00000000
:BAN00018:  18    1.154812    1.175472  0.00000000
:BAN00019:  19    1.164610    1.184047  0.00000000
:BAN00020:  20    1.168209    1.187683  0.00000000
        Energy to separate low and high energystates:    0.83164


:NOE  : NUMBER OF ELECTRONS          =   26.000

:FER  : F E R M I - ENERGY(TETRAH.M.)=   1.1197491795
:GMA  : POTENTIAL AND CHARGE CUT-OFF  12.00 Ry**.5

:POS001: ATOM   -1 X,Y,Z = 0.00000 0.89750 0.25000  MULT= 2  ZZ= 59.000  Pr1       

       LMMAX 16
       LM=   0 0  1 0  2 0  2 2  3 0  3 2  4 0  4 2  4 4  5 0  5 2  5 4  6 0  6 2  6 4  6 6

:CHA001: TOTAL VALENCE CHARGE INSIDE SPHERE   1 =   9.7468    (RMT=  2.3000 )
:PCS001: PARTIAL CHARGES SPHERE =  1 S,P,D,F,PX,PY,PZ,D-Z2,D-X2Y2,D-XY,D-XZ,D-YZ 
:QTL001: 1.9345 4.9659 0.8701 1.9735 1.6548 1.6504 1.6607 0.1699 0.1584 0.1757 0.1810 0.1852
        Q-s-low E-s-low   Q-p-low E-p-low   Q-d-low E-d-low   Q-f-low E-f-low
:EPL001:  1.8683 -1.4625    4.8754 -0.1594    0.0203 -0.2092    0.0065 -0.2146
        Q-s-hi  E-s-hi    Q-p-hi  E-p-hi    Q-d-hi  E-d-hi    Q-f-hi  E-f-hi 
:EPH001:  0.0662  1.0275    0.0905  1.0466    0.8498  1.0227    1.9670  1.0834

                      VXX         VYY         VZZ       UP TO R
:VZZ001:            -0.39602     7.64827    -7.25224       2.300

:CHA  : TOTAL VALENCE CHARGE INSIDE UNIT CELL =      26.000000

:SUM  : SUM OF EIGENVALUES =           2.619482876


        1.ATOM      Pr1                  14 CORE STATES
       CORE-FORCE in mRy/a.u. = |F|      Fx             Fy             Fz
:FCO001:   1.ATOM    723.973359987404      0.000000000000      0.000000000000    723.973359987404

:1S 001: 1S               -3066.472752614 Ry
:2S 001: 2S                -492.234349234 Ry
:2PP001: 2P*               -465.332265917 Ry
:2P 001: 2P                -429.935305469 Ry
:3S 001: 3S                -105.329554529 Ry
:3PP001: 3P*                -93.867256136 Ry
:3P 001: 3P                 -86.859315133 Ry
:3DD001: 3D*                -66.786335021 Ry
:3D 001: 3D                 -65.274788255 Ry
:4S 001: 4S                 -19.985378852 Ry
:4PP001: 4P*                -15.690684876 Ry
:4P 001: 4P                 -14.161006146 Ry
:4DD001: 4D*                 -7.090391330 Ry
:4D 001: 4D                  -6.820276675 Ry
:CINT001 Core Integral Atom   1   45.998490

       DENSITY AT NUCLEUS
        JATOM        VALENCE       SEMI-CORE          CORE           TOTAL
:RTO001:   1      643.312047        0.000000   656827.334509   657470.646556
     
       CHARGES OF NEW CHARGE DENSITY
:NTO   : INTERSTITIAL CHARGE =     6.506311
:NPC   : PW Pseudocharge     =    17.614606
:NTO001: CHARGE SPHERE  1    =    55.745332

:NEC01: NUCLEAR AND ELECTRONIC CHARGE    118.00000   117.99698
     
       CHARGES OF OLD CHARGE DENSITY
:OTO   : INTERSTITIAL CHARGE =     6.394701
:OPC   : PW Pseudocharge     =    17.590108
:OTO001: CHARGE SPHERE  1    =    55.802650

:NEC02: NUCLEAR AND ELECTRONIC CHARGE    118.00000   118.00000
     
       CONVERGENCE TEST
:DTO001: DIFFERENCE IN SPHERE  1 =  0.1410174

:DIS  :  CHARGE DISTANCE       ( 0.1410174 for atom    1 spin 1)      0.1410174
 PW Mixed is          316
 
******************************************************
* MULTISECANT MIXING VER9 RELEASE 10.4.0              *
* Standard Mode with controls                        *
* Fixed density scale                                *
* Regularization       1.000E-04                     *
* Trust Upper Limit    5.000E+00                     *
* Max Number of Memory Steps    8                    *
******************************************************
 
:PWTMP   1.8960E+02  1.9467E+02  2.9153E+02
:PLANE:  PW TOTAL      6.0486 DISTAN   1.03E-01  1.70E+00 %
:CHARG:  CLM/ATOM   1382.0120 DISTAN   3.56E-01  2.58E-02 %
 
Step History
        DMIX         DMIXT        Red     Pred      Trust     Lambda    MagRel    MagAbs     Beta
  1   3.5000E-02   3.5000E-02 -1.00E+00  1.00E+00 -1.00E+01  1.00E+00  3.50E-02  3.50E-02  1.00E+00
  2   2.5000E-02   2.5000E-02  8.05E-01  1.00E+00 -1.00E+01  1.00E+00  2.50E-02  4.57E-02  1.00E+00
  3   4.5691E-02   4.5691E-02  9.06E-01  1.00E+00 -1.00E+01  1.20E+00  4.57E-02  6.71E-02  1.00E+00
  4   4.4690E-02   4.4690E-02  7.46E-01  7.95E-01  2.77E-01  1.88E+00  1.25E-01  1.67E-01  1.00E+00
  5   1.1172E-01   1.1172E-01 -1.00E+00  4.54E-01  5.53E-01  1.00E+00  2.82E-01  2.80E-01  8.00E-01
:JACOBIANS    8.966E-01   1.726E-01
  
:NORMS:  1/Froebius, Min, Max, Used   0.2901E+00  0.2489E+00  0.1001E+01  0.3322E+00
:INFO :  Number of Memory Steps    4 Skipping    0
:INFO :  SLambda=    2.3947053281  Max    2.3947053281
:PREDicted Charge, CTotal, PW Trust    4.068E-02   8.137E-02   2.408E-01
:PREDicted DMix, Beta, BLim   1.6226E-01  1.3019E+00  1.2390E+00

Eigenvalues, unscaled except for SY+YY
   #     SY Real        SY Imag          SS             YY         SY+YY Real      SY+YY Imag
   1   4.970297E-01   0.000000E+00   2.333163E-01   3.766496E+00   4.957645E+00   0.000000E+00
   2   2.322309E-01   0.000000E+00   1.032264E-01   2.331969E-01   7.884331E-01   0.000000E+00
   3   1.234844E-04   0.000000E+00   5.254248E-05   3.038222E-04   5.772208E-04   0.000000E+00
   4   5.054785E-16   0.000000E+00  -2.484653E-18   3.800821E-06   4.189085E-06   0.000000E+00
 
:INFO :  Singular value  4.960E+00 Weight  1.000E+00 Projection -9.030E-02
:INFO :  Singular value  7.881E-01 Weight  1.000E+00 Projection -1.676E-01
:INFO :  Singular value  5.772E-04 Weight  7.014E-01 Projection  1.270E+01
:INFO :  Singular value  4.189E-06 Weight  1.237E-04 Projection -6.796E-03
:RANK :  ACTIVE   2.70/4  =  67.54 % ; YY RANK   2.39/4  =  59.86 %
 
:BLIM :  VZERO Control Off
:TRUST:  Step 8.27E-01  Charge 7.50E-02 (e) CTO  2.21E-01 (e) PW  3.85E-01 (e)
:DIRM :  MEMORY  4/8  SCALE   1.000 RED  0.37 PRED  0.45 NEXT  0.70 
:TRAVE:  Charge 1.70E-02 (e) CTO  3.39E-02 (e) PW  1.24E-01 (e)
:DIRP :  |MSR1|= 6.533E-02 |PRATT|= 1.026E-01 ANGLE=  34.4 DEGREES
:DIRQ :  |MSR1|= 1.369E-01 |PRATT|= 3.559E-01 ANGLE=  19.8 DEGREES
:DIRT :  |MSR1|= 1.517E-01 |PRATT|= 3.704E-01 ANGLE=  23.9 DEGREES
:MIX  :   MSE1   REGULARIZATION:  3.77E-04 GREED: 0.11938  Newton 1.00  0.4096                
     
       CHARGES OF MIXED CHARGE DENSITY
:CTO   : INTERSTITIAL CHARGE =     6.404518
:CPC   : PW Pseudocharge     =    17.521719
:CTO001: CHARGE SPHERE  1    =    55.797741

:NEC03: NUCLEAR AND ELECTRONIC CHARGE    118.00000   118.00000

PW CHANGE     H    K    L      Current       Change    Residue
:PTO001:      0    0    0  8.20718251E-02 -2.009E-04  5.053E-04
:PTO003:      0    2    0  1.88722050E-02  7.691E-05  4.662E-04
:PTO004:     -1    1    0  8.76126524E-02 -2.462E-04  6.555E-04
:PTO005:      0    2   -1 -1.00122492E-01  9.190E-04  8.346E-04
:PTO006:      0    0   -2 -5.18765766E-02  4.502E-04  3.898E-04
:PTO007:     -1    1   -1 -1.03434458E-01  1.293E-03  1.651E-03
:PTO008:      0    2   -2 -1.45212612E-02  4.809E-04  8.846E-04
:PTO009:     -1    1   -2 -7.09209531E-02  1.519E-03  2.181E-03
:PTO011:     -1    3    0 -1.00744713E-02  1.424E-04  5.130E-05
:PTO012:     -1    3   -1 -4.17862474E-02  9.921E-04  9.939E-04
:PTO013:      0    4    0 -6.97283846E-03  2.362E-04  2.846E-04
:PTO014:      0    2   -3  1.60904769E-02 -3.130E-04 -6.643E-05

:ENE  : ********** TOTAL ENERGY IN Ry =       -36944.31459948

       TOTAL FORCE IN mRy/a.u. = |F|     Fx             Fy             Fz     with/without FOR in case.in2
:FOR001:   1.ATOM         51.346          0.000          0.000        -51.346 partial forces
       TOTAL FORCE WITH RESPECT TO GLOBAL CARTESIAN COORDINATES:
:FCA001:   1.ATOM                         0.000        -51.346          0.000 partial forces
       TOTAL FORCE WITH RESPECT TO THE GLOBAL COORDINATE SYSTEM:
:FGL001:   1.ATOM                 0.000000000   -51.346154501     0.000000000 partial forces
 Flat Integration
 New Mode for Coulomb Integral
 Consistent 3/8+Simpson combinations
 Extension of core to zero
 LDM version in phi
 Fifth-order quadrature in outwin


            ---------
:ITE006:  6. ITERATION
            ---------

:NATO :    1 INDEPENDENT AND    2 TOTAL ATOMS IN UNITCELL
       SUBSTANCE: aU                                                          

       LATTICE                      = CXY 
:POT  : POTENTIAL OPTION EX_LDA EC_LDA VX_LDA VC_LDA
:LAT  : LATTICE CONSTANTS=  5.47380 11.10771  9.58952    1.571    1.571    1.571
:VOL  : UNIT CELL VOLUME =     291.52801
       MODE OF CALCULATION IS       = RELA
       NON-SPINPOLARIZED CALCULATION
:IFFT  : FFT-parameters:   48   90   80 Factor: 2.00


   CONVERGENCE PARAMETER FOR PSEUDOCHARGE: NCON=  9
   MAXIMAL VALUE OF RMT(JATOM)*ABSK(NKK) : RK  =27.59917


:VKCOUL :  VK-COUL convergence: 0.171E-06
       ATOMNUMBER=  1 Pr1        VCOUL-ZERO =  0.58454E+00
:EFG001:                        EFG         =     4.19210   *10**21  V / m**2
                               V20  TOT/SRF=    -3.00887    -0.06364
                               V22  TOT/SRF=    -2.45493    -0.00916
                               V22M TOT/SRF=     0.00000     0.00000
                               V21  TOT/SRF=     0.00000     0.00000
                               V21M TOT/SRF=     0.00000     0.00000

             -0.71775    0.00000    0.00000       -0.71775    0.00000    0.00000
              0.00000    4.19210    0.00000        0.00000    4.19210    0.00000
              0.00000    0.00000   -3.47435        0.00000    0.00000   -3.47435

         MAIN DIRECTIONS OF THE EFG   1.0000  0.0000  0.0000
                                      0.0000  1.0000  0.0000
                                      0.0000  0.0000  1.0000
:ANG001:  ANGLE WITH OLD X-AXIS =         0.0

:ETA001:                         ASYMM. ETA =     0.65757


     HELLMANN-FEYNMAN-FORCE IN mRy/a.u. = |F|  Fx       Fy             Fz
:FHF001:   1.ATOM    981.011131482193      0.000000000000      0.000000000000   -981.011131482193

:FIT001: LUSE= 13 SIGMA OF V-XC FIT FOR ATOM  1  0.5454970E-04
:FIT001: LUSE= 13 SIGMA OF V-XC FIT FOR ATOM  1  0.5454970E-04
:DEN  : DENSITY INTEGRAL  =        -14207.52064782   (Ry)
       ELS_POTENTIAL_AT Z=0 and Z=0.5:   0.98916   0.98916
       ELS_POTENTIAL_AT Y=0 and Y=0.5:  -0.00207  -0.00207
:VZERO:v0,v0c,v0x   0.25889   0.98916  -0.73027 v5,v5c,v5x   0.25889   0.98916  -0.73027
:VZERY:v0,v0c,v0x  -0.95363  -0.00207  -0.95156 v5,v5c,v5x  -0.95363  -0.00207  -0.95156
:VZERX:v0,v0c,v0x  -1.28706  -0.39572  -0.89134 v5,v5c,v5x  -1.28706  -0.39572  -0.89134
:LMAX-WF:   10   Non-Spherical LMAX:   4

          ATOMIC SPHERE DEPENDENT PARAMETERS FOR ATOM  Pr1       
:e__0001: OVERALL ENERGY PARAMETER IS    0.9319
          OVERALL BASIS SET ON ATOM IS LAPW
:E0_0001: E( 0)=    0.9319
             APW+lo
:E0_0001: E( 0)=   -1.5105   E(BOTTOM)=   -2.150   E(TOP)=   -0.871  4  5   233
             LOCAL ORBITAL
:E1_0001: E( 1)=    1.3319
             APW+lo
:E1_0001: E( 1)=   -0.0425   E(BOTTOM)=   -1.006   E(TOP)=    0.921  3  4   240
             LOCAL ORBITAL
:E3_0001: E( 3)=    1.1302   E(BOTTOM)=    0.923   E(TOP)=    1.337  0  1   118
             APW+lo
:E2_0001: E( 2)=    0.9319   E(BOTTOM)=    0.729   E(TOP)= -200.000  2 -1   123
             APW+lo

       K=   0.06250   0.00000   0.06250            1
:RKM  : MATRIX SIZE   297LOs:  40  RKM= 8.46  WEIGHT= 4.00  PGR:    
       EIGENVALUES ARE:
:EIG00001:      -1.5477508   -1.4734505   -0.3604098   -0.1174662   -0.0603035
:EIG00006:      -0.0378956   -0.0144274   -0.0132031    0.9594620    0.9675565
:EIG00011:       1.0854429    1.0927243    1.0954193    1.1048864    1.1208944
:EIG00016:       1.1457068    1.1551364    1.1580727    1.1640750    1.1678225
:EIG00021:       1.1789328    1.1790527    1.1814465    1.2039509    1.2209234
:EIG00026:       1.2520151    1.3469234    1.3493495    1.4279168    1.4693380
:EIG00031:       1.5196890    1.6986772    1.7202783    1.7942270    2.0904976
:EIG00036:       2.1388796    2.1757087    2.3943617    2.4228377    2.5310782
       ********************************************************

:KPT   :      NUMBER OF K-POINTS:   288
:GAP (global)   :    0.0    Ry =     0.0   eV (metal)
         Bandranges (emin - emax) and occupancy:
:BAN00005:   5   -0.271582   -0.060303  2.00000000
:BAN00006:   6   -0.241567   -0.023968  2.00000000
:BAN00007:   7   -0.188953   -0.014427  2.00000000
:BAN00008:   8   -0.080231   -0.000084  2.00000000
:BAN00009:   9    0.881481    1.052925  2.00000000
:BAN00010:  10    0.930394    1.069561  2.00000000
:BAN00011:  11    0.971601    1.115072  2.00000000
:BAN00012:  12    1.037788    1.121285  1.96833079
:BAN00013:  13    1.065091    1.140135  1.29796200
:BAN00014:  14    1.092861    1.152320  0.72398494
:BAN00015:  15    1.110894    1.155552  0.00972227
:BAN00016:  16    1.122881    1.160517  0.00000000
:BAN00017:  17    1.143860    1.169630  0.00000000
:BAN00018:  18    1.149920    1.171298  0.00000000
:BAN00019:  19    1.159562    1.179647  0.00000000
:BAN00020:  20    1.161557    1.181194  0.00000000
        Energy to separate low and high energystates:    0.83148


:NOE  : NUMBER OF ELECTRONS          =   26.000

:FER  : F E R M I - ENERGY(TETRAH.M.)=   1.1154156980
:GMA  : POTENTIAL AND CHARGE CUT-OFF  12.00 Ry**.5

:POS001: ATOM   -1 X,Y,Z = 0.00000 0.89750 0.25000  MULT= 2  ZZ= 59.000  Pr1       

       LMMAX 16
       LM=   0 0  1 0  2 0  2 2  3 0  3 2  4 0  4 2  4 4  5 0  5 2  5 4  6 0  6 2  6 4  6 6

:CHA001: TOTAL VALENCE CHARGE INSIDE SPHERE   1 =   9.7700    (RMT=  2.3000 )
:PCS001: PARTIAL CHARGES SPHERE =  1 S,P,D,F,PX,PY,PZ,D-Z2,D-X2Y2,D-XY,D-XZ,D-YZ 
:QTL001: 1.9341 4.9683 0.8587 2.0062 1.6556 1.6509 1.6617 0.1683 0.1535 0.1748 0.1780 0.1841
        Q-s-low E-s-low   Q-p-low E-p-low   Q-d-low E-d-low   Q-f-low E-f-low
:EPL001:  1.8687 -1.4671    4.8795 -0.1627    0.0201 -0.2098    0.0064 -0.2154
        Q-s-hi  E-s-hi    Q-p-hi  E-p-hi    Q-d-hi  E-d-hi    Q-f-hi  E-f-hi 
:EPH001:  0.0654  1.0254    0.0888  1.0443    0.8386  1.0205    1.9998  1.0801

                      VXX         VYY         VZZ       UP TO R
:VZZ001:             1.22171     8.56215    -9.78385       2.300

:CHA  : TOTAL VALENCE CHARGE INSIDE UNIT CELL =      26.000000

:SUM  : SUM OF EIGENVALUES =           2.541699446


        1.ATOM      Pr1                  14 CORE STATES
       CORE-FORCE in mRy/a.u. = |F|      Fx             Fy             Fz
:FCO001:   1.ATOM    994.884549373968      0.000000000000      0.000000000000    994.884549373968

:1S 001: 1S               -3066.467431166 Ry
:2S 001: 2S                -492.226743188 Ry
:2PP001: 2P*               -465.324617283 Ry
:2P 001: 2P                -429.927629961 Ry
:3S 001: 3S                -105.326181871 Ry
:3PP001: 3P*                -93.863652266 Ry
:3P 001: 3P                 -86.855984743 Ry
:3DD001: 3D*                -66.782085199 Ry
:3D 001: 3D                 -65.270635392 Ry
:4S 001: 4S                 -19.989239478 Ry
:4PP001: 4P*                -15.694762700 Ry
:4P 001: 4P                 -14.165520066 Ry
:4DD001: 4D*                 -7.095262762 Ry
:4D 001: 4D                  -6.825260520 Ry
:CINT001 Core Integral Atom   1   45.998491

       DENSITY AT NUCLEUS
        JATOM        VALENCE       SEMI-CORE          CORE           TOTAL
:RTO001:   1      643.616951        0.000000   656826.228554   657469.845505
     
       CHARGES OF NEW CHARGE DENSITY
:NTO   : INTERSTITIAL CHARGE =     6.459980
:NPC   : PW Pseudocharge     =    17.596070
:NTO001: CHARGE SPHERE  1    =    55.768499

:NEC01: NUCLEAR AND ELECTRONIC CHARGE    118.00000   117.99698
     
       CHARGES OF OLD CHARGE DENSITY
:OTO   : INTERSTITIAL CHARGE =     6.404518
:OPC   : PW Pseudocharge     =    17.521719
:OTO001: CHARGE SPHERE  1    =    55.797741

:NEC02: NUCLEAR AND ELECTRONIC CHARGE    118.00000   118.00000
     
       CONVERGENCE TEST
:DTO001: DIFFERENCE IN SPHERE  1 =  0.0766032

:DIS  :  CHARGE DISTANCE       ( 0.0766032 for atom    1 spin 1)      0.0766032
 PW Mixed is          316
 
******************************************************
* MULTISECANT MIXING VER9 RELEASE 10.4.0              *
* Standard Mode with controls                        *
* Fixed density scale                                *
* Regularization       1.000E-04                     *
* Trust Upper Limit    5.000E+00                     *
* Max Number of Memory Steps    8                    *
******************************************************
 
:PWTMP   1.8960E+02  1.9467E+02  2.9153E+02
:PLANE:  PW TOTAL      6.0096 DISTAN   5.07E-02  8.44E-01 %
:CHARG:  CLM/ATOM   1381.9929 DISTAN   1.92E-01  1.39E-02 %
 
Step History
        DMIX         DMIXT        Red     Pred      Trust     Lambda    MagRel    MagAbs     Beta
  1   3.5000E-02   3.5000E-02 -1.00E+00  1.00E+00 -1.00E+01  1.00E+00  3.50E-02  3.50E-02  1.00E+00
  2   2.5000E-02   2.5000E-02  8.05E-01  1.00E+00 -1.00E+01  1.00E+00  2.50E-02  4.57E-02  1.00E+00
  3   4.5691E-02   4.5691E-02  9.06E-01  1.00E+00 -1.00E+01  1.20E+00  4.57E-02  6.71E-02  1.00E+00
  4   4.4690E-02   4.4690E-02  7.46E-01  7.95E-01  2.77E-01  1.88E+00  1.25E-01  1.67E-01  1.00E+00
  5   1.1172E-01   1.1172E-01  3.73E-01  4.54E-01  5.53E-01  2.39E+00  2.82E-01  2.80E-01  8.00E-01
  6   1.1938E-01   1.1938E-01 -1.00E+00  7.00E-01  8.27E-01  1.00E+00  4.10E-01  1.52E-01  1.00E+00
:JACOBIANS    9.684E-01   4.447E-01
  
:NORMS:  1/Froebius, Min, Max, Used   0.4343E+00  0.4163E+00  0.1002E+01  0.4426E+00
:INFO :  Number of Memory Steps    5 Skipping    0
:INFO :  SLambda=    1.5426696411  Max    1.5426696411
:PREDicted Charge, CTotal, PW Trust    1.036E-02   2.072E-02   5.941E-03
:PREDicted DMix, Beta, BLim   2.4561E-01  1.4831E+00  1.0839E+00

Eigenvalues, unscaled except for SY+YY
   #     SY Real        SY Imag          SS             YY         SY+YY Real      SY+YY Imag
   1   9.088836E-01   0.000000E+00   7.216160E-01   3.968727E+00   5.143301E+00   0.000000E+00
   2   3.917035E-01   0.000000E+00   1.836775E-01   8.768759E-01   1.689159E+00   0.000000E+00
   3   1.278152E-01   0.000000E+00   3.789797E-02   1.543400E-01   3.710330E-01   0.000000E+00
   4   1.092018E-05   0.000000E+00   2.107030E-06   5.426145E-05   7.323302E-05   0.000000E+00
   5   4.959603E-16   0.000000E+00   1.616967E-17   2.817074E-06   3.025328E-06   0.000000E+00
 
:INFO :  Singular value  5.160E+00 Weight  1.000E+00 Projection -6.966E-02
:INFO :  Singular value  1.684E+00 Weight  1.000E+00 Projection -8.851E-02
:INFO :  Singular value  3.710E-01 Weight  1.000E+00 Projection  1.824E-01
:INFO :  Singular value  7.325E-05 Weight  3.294E-02 Projection -5.604E-01
:INFO :  Singular value  3.025E-06 Weight  5.809E-05 Projection  6.490E-04
:RANK :  ACTIVE   3.03/5  =  60.66 % ; YY RANK   3.02/5  =  60.37 %
 
:BLIM :  VZERO Control Off
:TRUST:  Step 1.10E+00  Charge 7.50E-02 (e) CTO  1.76E-01 (e) PW  3.85E-01 (e)
:DIRM :  MEMORY  5/8  SCALE   1.000 RED  0.54 PRED  0.70 NEXT  0.75 
:TRAVE:  Charge 1.11E-02 (e) CTO  2.22E-02 (e) PW  8.24E-02 (e)
:DIRP :  |MSR1|= 3.071E-02 |PRATT|= 5.072E-02 ANGLE=  20.1 DEGREES
:DIRQ :  |MSR1|= 1.120E-01 |PRATT|= 1.920E-01 ANGLE=  23.4 DEGREES
:DIRT :  |MSR1|= 1.162E-01 |PRATT|= 1.986E-01 ANGLE=  23.2 DEGREES
:MIX  :   MSE1   REGULARIZATION:  3.97E-04 GREED: 0.17177  Newton 1.00  0.5850                
     
       CHARGES OF MIXED CHARGE DENSITY
:CTO   : INTERSTITIAL CHARGE =     6.414943
:CPC   : PW Pseudocharge     =    17.574367
:CTO001: CHARGE SPHERE  1    =    55.792528

:NEC03: NUCLEAR AND ELECTRONIC CHARGE    118.00000   118.00000

PW CHANGE     H    K    L      Current       Change    Residue
:PTO001:      0    0    0  8.22881841E-02  2.164E-04  4.839E-04
:PTO003:      0    2    0  1.89879843E-02  1.158E-04 -1.919E-05
:PTO004:     -1    1    0  8.81857589E-02  5.731E-04  6.150E-04
:PTO005:      0    2   -1 -1.00376241E-01 -2.537E-04 -2.246E-04
:PTO006:      0    0   -2 -5.20584090E-02 -1.818E-04 -2.316E-04
:PTO007:     -1    1   -1 -1.03600270E-01 -1.658E-04 -1.099E-04
:PTO008:      0    2   -2 -1.43038408E-02  2.174E-04  4.531E-04
:PTO009:     -1    1   -2 -7.08500141E-02  7.094E-05  3.543E-04
:PTO011:     -1    3    0 -1.02094254E-02 -1.350E-04 -2.277E-04
:PTO012:     -1    3   -1 -4.19339974E-02 -1.477E-04  8.842E-05
:PTO013:      0    4    0 -6.97860547E-03 -5.767E-06  4.043E-05
:PTO014:      0    2   -3  1.63002738E-02  2.098E-04  2.459E-04

:ENE  : ********** TOTAL ENERGY IN Ry =       -36944.31207297

       TOTAL FORCE IN mRy/a.u. = |F|     Fx             Fy             Fz     with/without FOR in case.in2
:FOR001:   1.ATOM         13.873          0.000          0.000         13.873 partial forces
       TOTAL FORCE WITH RESPECT TO GLOBAL CARTESIAN COORDINATES:
:FCA001:   1.ATOM                         0.000         13.873          0.000 partial forces
       TOTAL FORCE WITH RESPECT TO THE GLOBAL COORDINATE SYSTEM:
:FGL001:   1.ATOM                 0.000000000    13.873417892     0.000000000 partial forces
 Flat Integration
 New Mode for Coulomb Integral
 Consistent 3/8+Simpson combinations
 Extension of core to zero
 LDM version in phi
 Fifth-order quadrature in outwin


            ---------
:ITE007:  7. ITERATION
            ---------

:NATO :    1 INDEPENDENT AND    2 TOTAL ATOMS IN UNITCELL
       SUBSTANCE: aU                                                          

       LATTICE                      = CXY 
:POT  : POTENTIAL OPTION EX_LDA EC_LDA VX_LDA VC_LDA
:LAT  : LATTICE CONSTANTS=  5.47380 11.10771  9.58952    1.571    1.571    1.571
:VOL  : UNIT CELL VOLUME =     291.52801
       MODE OF CALCULATION IS       = RELA
       NON-SPINPOLARIZED CALCULATION
:IFFT  : FFT-parameters:   48   90   80 Factor: 2.00


   CONVERGENCE PARAMETER FOR PSEUDOCHARGE: NCON=  9
   MAXIMAL VALUE OF RMT(JATOM)*ABSK(NKK) : RK  =27.59917


:VKCOUL :  VK-COUL convergence: 0.223E-06
       ATOMNUMBER=  1 Pr1        VCOUL-ZERO =  0.58674E+00
:EFG001:                        EFG         =     6.47544   *10**21  V / m**2
                               V20  TOT/SRF=    -5.47267    -0.06421
                               V22  TOT/SRF=    -3.31580    -0.01461
                               V22M TOT/SRF=     0.00000     0.00000
                               V21  TOT/SRF=     0.00000     0.00000
                               V21M TOT/SRF=     0.00000     0.00000

             -0.15615    0.00000    0.00000       -0.15615    0.00000    0.00000
              0.00000    6.47544    0.00000        0.00000    6.47544    0.00000
              0.00000    0.00000   -6.31929        0.00000    0.00000   -6.31929

         MAIN DIRECTIONS OF THE EFG   1.0000  0.0000  0.0000
                                      0.0000  1.0000  0.0000
                                      0.0000  0.0000  1.0000
:ANG001:  ANGLE WITH OLD X-AXIS =         0.0

:ETA001:                         ASYMM. ETA =     0.95177


     HELLMANN-FEYNMAN-FORCE IN mRy/a.u. = |F|  Fx       Fy             Fz
:FHF001:   1.ATOM   1294.769994333247      0.000000000000      0.000000000000  -1294.769994333247

:FIT001: LUSE= 13 SIGMA OF V-XC FIT FOR ATOM  1  0.7052091E-04
:FIT001: LUSE= 13 SIGMA OF V-XC FIT FOR ATOM  1  0.7052091E-04
:DEN  : DENSITY INTEGRAL  =        -14207.15221797   (Ry)
       ELS_POTENTIAL_AT Z=0 and Z=0.5:   0.99099   0.99099
       ELS_POTENTIAL_AT Y=0 and Y=0.5:   0.00111   0.00111
:VZERO:v0,v0c,v0x   0.26098   0.99099  -0.73001 v5,v5c,v5x   0.26098   0.99099  -0.73001
:VZERY:v0,v0c,v0x  -0.95142   0.00111  -0.95254 v5,v5c,v5x  -0.95142   0.00111  -0.95254
:VZERX:v0,v0c,v0x  -1.28820  -0.39640  -0.89181 v5,v5c,v5x  -1.28820  -0.39640  -0.89181
:LMAX-WF:   10   Non-Spherical LMAX:   4

          ATOMIC SPHERE DEPENDENT PARAMETERS FOR ATOM  Pr1       
:e__0001: OVERALL ENERGY PARAMETER IS    0.9209
          OVERALL BASIS SET ON ATOM IS LAPW
:E0_0001: E( 0)=    0.9209
             APW+lo
:E0_0001: E( 0)=   -1.5150   E(BOTTOM)=   -2.154   E(TOP)=   -0.876  4  5   226
             LOCAL ORBITAL
:E1_0001: E( 1)=    1.3209
             APW+lo
:E1_0001: E( 1)=   -0.0463   E(BOTTOM)=   -1.009   E(TOP)=    0.916  3  4   236
             LOCAL ORBITAL
:E3_0001: E( 3)=    1.1243   E(BOTTOM)=    0.918   E(TOP)=    1.331  0  1   128
             APW+lo
:E2_0001: E( 2)=    0.9209   E(BOTTOM)=    0.727   E(TOP)= -200.000  2 -1   122
             APW+lo

       K=   0.06250   0.00000   0.06250            1
:RKM  : MATRIX SIZE   297LOs:  40  RKM= 8.46  WEIGHT= 4.00  PGR:    
       EIGENVALUES ARE:
:EIG00001:      -1.5515268   -1.4777729   -0.3615286   -0.1208213   -0.0639142
:EIG00006:      -0.0413986   -0.0175144   -0.0169318    0.9594477    0.9677299
:EIG00011:       1.0821204    1.0876260    1.0910065    1.1011382    1.1170395
:EIG00016:       1.1402129    1.1493958    1.1522826    1.1586559    1.1616634
:EIG00021:       1.1729245    1.1736498    1.1760127    1.1980989    1.2169243
:EIG00026:       1.2496845    1.3460245    1.3482362    1.4266998    1.4680156
:EIG00031:       1.5183387    1.6970743    1.7192827    1.7931736    2.0900686
:EIG00036:       2.1384524    2.1751218    2.3941755    2.4225223    2.5315136
       ********************************************************

:KPT   :      NUMBER OF K-POINTS:   288
:GAP (global)   :    0.0    Ry =     0.0   eV (metal)
         Bandranges (emin - emax) and occupancy:
:BAN00005:   5   -0.273701   -0.063914  2.00000000
:BAN00006:   6   -0.244063   -0.027527  2.00000000
:BAN00007:   7   -0.192062   -0.017514  2.00000000
:BAN00008:   8   -0.083245   -0.003869  2.00000000
:BAN00009:   9    0.881631    1.051354  2.00000000
:BAN00010:  10    0.930435    1.067145  2.00000000
:BAN00011:  11    0.971298    1.110770  1.99999978
:BAN00012:  12    1.036575    1.117234  1.96176139
:BAN00013:  13    1.063227    1.134905  1.28169539
:BAN00014:  14    1.089056    1.145868  0.74371710
:BAN00015:  15    1.106046    1.149538  0.01282635
:BAN00016:  16    1.117447    1.154865  0.00000000
:BAN00017:  17    1.138121    1.163877  0.00000000
:BAN00018:  18    1.144279    1.165966  0.00000000
:BAN00019:  19    1.153233    1.173589  0.00000000
:BAN00020:  20    1.155171    1.176255  0.00000000
        Energy to separate low and high energystates:    0.83163


:NOE  : NUMBER OF ELECTRONS          =   26.000

:FER  : F E R M I - ENERGY(TETRAH.M.)=   1.1107228361
:GMA  : POTENTIAL AND CHARGE CUT-OFF  12.00 Ry**.5

:POS001: ATOM   -1 X,Y,Z = 0.00000 0.89750 0.25000  MULT= 2  ZZ= 59.000  Pr1       

       LMMAX 16
       LM=   0 0  1 0  2 0  2 2  3 0  3 2  4 0  4 2  4 4  5 0  5 2  5 4  6 0  6 2  6 4  6 6

:CHA001: TOTAL VALENCE CHARGE INSIDE SPHERE   1 =   9.8052    (RMT=  2.3000 )
:PCS001: PARTIAL CHARGES SPHERE =  1 S,P,D,F,PX,PY,PZ,D-Z2,D-X2Y2,D-XY,D-XZ,D-YZ 
:QTL001: 1.9332 4.9697 0.8431 2.0564 1.6564 1.6513 1.6620 0.1650 0.1491 0.1732 0.1742 0.1817
        Q-s-low E-s-low   Q-p-low E-p-low   Q-d-low E-d-low   Q-f-low E-f-low
:EPL001:  1.8692 -1.4714    4.8838 -0.1655    0.0199 -0.2114    0.0064 -0.2171
        Q-s-hi  E-s-hi    Q-p-hi  E-p-hi    Q-d-hi  E-d-hi    Q-f-hi  E-f-hi 
:EPH001:  0.0640  1.0236    0.0859  1.0417    0.8232  1.0185    2.0501  1.0765

                      VXX         VYY         VZZ       UP TO R
:VZZ001:             1.28827     8.93766   -10.22593       2.300

:CHA  : TOTAL VALENCE CHARGE INSIDE UNIT CELL =      26.000000

:SUM  : SUM OF EIGENVALUES =           2.470210322


        1.ATOM      Pr1                  14 CORE STATES
       CORE-FORCE in mRy/a.u. = |F|      Fx             Fy             Fz
:FCO001:   1.ATOM   1335.554703915776      0.000000000000      0.000000000000   1335.554703915776

:1S 001: 1S               -3066.469774359 Ry
:2S 001: 2S                -492.226420806 Ry
:2PP001: 2P*               -465.324404436 Ry
:2P 001: 2P                -429.927338066 Ry
:3S 001: 3S                -105.328123549 Ry
[...]
:OTO   : INTERSTITIAL CHARGE =     6.404549
:OPC   : PW Pseudocharge     =    17.582458
:OTO001: CHARGE SPHERE  1    =    55.797725

:NEC02: NUCLEAR AND ELECTRONIC CHARGE    118.00000   118.00000
     
       CONVERGENCE TEST
:DTO001: DIFFERENCE IN SPHERE  1 =  0.0010219

:DIS  :  CHARGE DISTANCE       ( 0.0010219 for atom    1 spin 1)      0.0010219
 PW Mixed is          316
 
******************************************************
* MULTISECANT MIXING VER9 RELEASE 10.4.0              *
* Standard Mode with controls                        *
* Fixed density scale                                *
* Regularization       1.000E-04                     *
* Trust Upper Limit    5.000E+00                     *
* Max Number of Memory Steps    8                    *
******************************************************
 
:PWTMP   1.8960E+02  1.9467E+02  2.9153E+02
:PLANE:  PW TOTAL      6.0283 DISTAN   2.91E-04  4.83E-03 %
:CHARG:  CLM/ATOM   1381.9484 DISTAN   1.65E-03  1.19E-04 %
 
Step History
        DMIX         DMIXT        Red     Pred      Trust     Lambda    MagRel    MagAbs     Beta
  4   4.4690E-02   4.4690E-02  7.46E-01  7.95E-01  2.77E-01  1.88E+00  1.25E-01  1.67E-01  1.00E+00
  5   1.1172E-01   1.1172E-01  3.73E-01  4.54E-01  5.53E-01  2.39E+00  2.82E-01  2.80E-01  8.00E-01
  6   1.1938E-01   1.1938E-01  5.36E-01  7.00E-01  8.27E-01  1.54E+00  4.10E-01  1.52E-01  1.00E+00
  7   1.7177E-01   1.7177E-01  5.09E-01  7.53E-01  1.10E+00  8.73E-01  5.85E-01  1.16E-01  1.00E+00
  8   3.1673E-01   3.1673E-01  4.89E-01  3.47E-01  1.66E+00  1.31E+00  6.24E-01  6.31E-02  1.00E+00
  9   2.2275E-01   2.2275E-01  5.51E-01  5.37E-01  2.22E+00  1.87E+00  3.90E-01  1.93E-02  1.00E+00
 10   2.6522E-01   2.6522E-01  1.70E-01  2.79E-01  2.96E+00  1.21E+00  3.15E-01  8.56E-03  8.27E-01
 11   2.8947E-01   2.8947E-01  4.99E-01  4.50E-01  3.94E+00  1.72E+00  6.57E-01  3.04E-03  1.00E+00
 12   3.5000E-01   3.5000E-01 -1.00E+00  1.96E-01  5.26E+00  1.00E+00  4.00E-01  9.21E-04  1.00E+00
:JACOBIANS    1.192E+00   2.766E+00
  
:NORMS:  1/Froebius, Min, Max, Used   0.6937E+00  0.5865E+00  0.9983E+00  0.7977E+00
:INFO :  Number of Memory Steps    8 Skipping    3
:INFO :  SLambda=    1.6076240598  Max    1.6076240598
:PREDicted Charge, CTotal, PW Trust    2.038E-05   4.076E-05   2.355E-05
:PREDicted DMix, Beta, BLim   1.6195E-01  1.2910E+00  3.0793E+00

Eigenvalues, unscaled except for SY+YY
   #     SY Real        SY Imag          SS             YY         SY+YY Real      SY+YY Imag
   1   2.256116E+00   0.000000E+00   2.241069E+00   3.521730E+00   6.489494E+00   0.000000E+00
   2   1.202064E+00   0.000000E+00   1.046762E+00   2.054019E+00   4.107816E+00   0.000000E+00
   3   7.389348E-01   0.000000E+00   3.898493E-01   1.417051E+00   2.991300E+00   0.000000E+00
   4   2.863402E-01   0.000000E+00   9.631210E-02   7.611852E-01   1.358952E+00   0.000000E+00
   5   8.829976E-02   0.000000E+00   6.199734E-02   1.277499E-01   2.635524E-01   0.000000E+00
   6   4.360237E-05   0.000000E+00   9.487561E-03   7.102657E-02   1.882893E-04   0.000000E+00
   7   2.336334E-02   0.000000E+00   4.398914E-03   4.712372E-02   8.715008E-02   0.000000E+00
   8   2.252431E-02   0.000000E+00   1.755256E-05   1.137086E-04   1.250512E-01   0.000000E+00
 
:INFO :  Singular value  6.500E+00 Weight  1.000E+00 Projection  3.770E-04
:INFO :  Singular value  4.151E+00 Weight  1.000E+00 Projection -2.971E-04
:INFO :  Singular value  2.959E+00 Weight  1.000E+00 Projection -7.901E-04
:INFO :  Singular value  1.359E+00 Weight  1.000E+00 Projection  4.487E-04
:INFO :  Singular value  2.634E-01 Weight  1.000E+00 Projection  5.040E-04
:INFO :  Singular value  1.250E-01 Weight  1.000E+00 Projection  1.132E-03
:INFO :  Singular value  8.712E-02 Weight  1.000E+00 Projection -3.014E-04
:INFO :  Singular value  1.883E-04 Weight  2.223E-01 Projection  2.309E-03
:RANK :  ACTIVE   7.22/8  =  90.28 % ; YY RANK   7.09/8  =  88.68 %
 
:BLIM :  VZERO Control Off
:TRUST:  Step 7.01E+00  Charge 1.97E-02 (e) CTO  4.63E-02 (e) PW  1.01E-01 (e)
:DIRM :  MEMORY  8/8  SCALE   1.000 RED  0.73 PRED  0.20 NEXT  0.12 
:TRAVE:  Charge 4.99E-04 (e) CTO  9.99E-04 (e) PW  2.11E-03 (e)
:DIRP :  |MSR1|= 9.658E-05 |PRATT|= 2.911E-04 ANGLE=  40.7 DEGREES
:DIRQ :  |MSR1|= 4.658E-04 |PRATT|= 1.650E-03 ANGLE=  42.5 DEGREES
:DIRT :  |MSR1|= 4.757E-04 |PRATT|= 1.675E-03 ANGLE=  42.5 DEGREES
:MIX  :   MSE1   REGULARIZATION:  3.52E-04 GREED: 0.23525  Newton 1.00  0.2839                
     
       CHARGES OF MIXED CHARGE DENSITY
:CTO   : INTERSTITIAL CHARGE =     6.404653
:CPC   : PW Pseudocharge     =    17.582646
:CTO001: CHARGE SPHERE  1    =    55.797674

:NEC03: NUCLEAR AND ELECTRONIC CHARGE    118.00000   118.00000

PW CHANGE     H    K    L      Current       Change    Residue
:PTO001:      0    0    0  8.22812810E-02  9.969E-07  5.490E-06
:PTO003:      0    2    0  1.88478461E-02 -3.380E-07 -1.049E-06
:PTO004:     -1    1    0  8.81458430E-02  1.377E-06  1.584E-06
:PTO005:      0    2   -1 -1.00479594E-01 -8.763E-07 -7.852E-07
:PTO006:      0    0   -2 -5.21193042E-02 -9.497E-08  8.527E-07
:PTO007:     -1    1   -1 -1.03732373E-01 -1.671E-06 -1.457E-06
:PTO008:      0    2   -2 -1.41642681E-02 -2.917E-07 -4.992E-07
:PTO009:     -1    1   -2 -7.07018162E-02 -1.747E-06 -1.403E-06
:PTO011:     -1    3    0 -1.03619777E-02 -8.400E-07 -1.344E-06
:PTO012:     -1    3   -1 -4.17714981E-02 -1.437E-06 -2.346E-06
:PTO013:      0    4    0 -6.95267089E-03 -1.792E-07 -3.489E-07
:PTO014:      0    2   -3  1.62695480E-02  3.330E-07  6.136E-07

:ENE  : ********** TOTAL ENERGY IN Ry =       -36944.31150998

       TOTAL FORCE IN mRy/a.u. = |F|     Fx             Fy             Fz     with/without FOR in case.in2
:FOR001:   1.ATOM          6.714          0.000          0.000          6.714 partial forces
       TOTAL FORCE WITH RESPECT TO GLOBAL CARTESIAN COORDINATES:
:FCA001:   1.ATOM                         0.000          6.714          0.000 partial forces
       TOTAL FORCE WITH RESPECT TO THE GLOBAL COORDINATE SYSTEM:
:FGL001:   1.ATOM                 0.000000000     6.714174749     0.000000000 partial forces
 Flat Integration
 New Mode for Coulomb Integral
 Consistent 3/8+Simpson combinations
 Extension of core to zero
 LDM version in phi
 Fifth-order quadrature in outwin


            ---------
:ITE013: 13. ITERATION
            ---------

:NATO :    1 INDEPENDENT AND    2 TOTAL ATOMS IN UNITCELL
       SUBSTANCE: aU                                                          

       LATTICE                      = CXY 
:POT  : POTENTIAL OPTION EX_LDA EC_LDA VX_LDA VC_LDA
:LAT  : LATTICE CONSTANTS=  5.47380 11.10771  9.58952    1.571    1.571    1.571
:VOL  : UNIT CELL VOLUME =     291.52801
       MODE OF CALCULATION IS       = RELA
       NON-SPINPOLARIZED CALCULATION
:IFFT  : FFT-parameters:   48   90   80 Factor: 2.00


   CONVERGENCE PARAMETER FOR PSEUDOCHARGE: NCON=  9
   MAXIMAL VALUE OF RMT(JATOM)*ABSK(NKK) : RK  =27.59917


:VKCOUL :  VK-COUL convergence: 0.264E-06
       ATOMNUMBER=  1 Pr1        VCOUL-ZERO =  0.58696E+00
:EFG001:                        EFG         =    -9.07592   *10**21  V / m**2
                               V20  TOT/SRF=    -7.85997    -0.06648
                               V22  TOT/SRF=    -4.21494    -0.01231
                               V22M TOT/SRF=     0.00000     0.00000
                               V21  TOT/SRF=     0.00000     0.00000
                               V21M TOT/SRF=     0.00000     0.00000

              0.32302    0.00000    0.00000        0.32302    0.00000    0.00000
              0.00000    8.75290    0.00000        0.00000    8.75290    0.00000
              0.00000    0.00000   -9.07592        0.00000    0.00000   -9.07592

         MAIN DIRECTIONS OF THE EFG   1.0000  0.0000  0.0000
                                      0.0000  1.0000  0.0000
                                      0.0000  0.0000  1.0000
:ANG001:  ANGLE WITH OLD X-AXIS =         0.0

:ETA001:                         ASYMM. ETA =     0.92882


     HELLMANN-FEYNMAN-FORCE IN mRy/a.u. = |F|  Fx       Fy             Fz
:FHF001:   1.ATOM   1616.534557476446      0.000000000000      0.000000000000  -1616.534557476446

:FIT001: LUSE= 13 SIGMA OF V-XC FIT FOR ATOM  1  0.7631827E-04
:FIT001: LUSE= 13 SIGMA OF V-XC FIT FOR ATOM  1  0.7631827E-04
:DEN  : DENSITY INTEGRAL  =        -14207.20637448   (Ry)
       ELS_POTENTIAL_AT Z=0 and Z=0.5:   0.98943   0.98943
       ELS_POTENTIAL_AT Y=0 and Y=0.5:  -0.00054  -0.00054
:VZERO:v0,v0c,v0x   0.26043   0.98943  -0.72901 v5,v5c,v5x   0.26043   0.98943  -0.72901
:VZERY:v0,v0c,v0x  -0.95265  -0.00054  -0.95212 v5,v5c,v5x  -0.95265  -0.00054  -0.95212
:VZERX:v0,v0c,v0x  -1.28778  -0.39633  -0.89145 v5,v5c,v5x  -1.28778  -0.39633  -0.89145
:LMAX-WF:   10   Non-Spherical LMAX:   4

          ATOMIC SPHERE DEPENDENT PARAMETERS FOR ATOM  Pr1       
:e__0001: OVERALL ENERGY PARAMETER IS    0.9117
          OVERALL BASIS SET ON ATOM IS LAPW
:E0_0001: E( 0)=    0.9117
             APW+lo
:E0_0001: E( 0)=   -1.5149   E(BOTTOM)=   -2.154   E(TOP)=   -0.876  4  5   227
             LOCAL ORBITAL
:E1_0001: E( 1)=    1.3117
             APW+lo
:E1_0001: E( 1)=   -0.0462   E(BOTTOM)=   -1.009   E(TOP)=    0.916  3  4   240
             LOCAL ORBITAL
:E3_0001: E( 3)=    1.1254   E(BOTTOM)=    0.919   E(TOP)=    1.332  0  1   120
             APW+lo
:E2_0001: E( 2)=    0.9117   E(BOTTOM)=    0.727   E(TOP)= -200.000  2 -1   120
             APW+lo

       K=   0.06250   0.00000   0.06250            1
:RKM  : MATRIX SIZE   297LOs:  40  RKM= 8.46  WEIGHT= 4.00  PGR:    
       EIGENVALUES ARE:
:EIG00001:      -1.5514823   -1.4775769   -0.3624153   -0.1199659   -0.0631696
:EIG00006:      -0.0414629   -0.0182084   -0.0168508    0.9595072    0.9679624
:EIG00011:       1.0828715    1.0893989    1.0918125    1.1011294    1.1178975
:EIG00016:       1.1408035    1.1502216    1.1529684    1.1591216    1.1632337
:EIG00021:       1.1747167    1.1753366    1.1760651    1.1993805    1.2179771
:EIG00026:       1.2501911    1.3463319    1.3480651    1.4270041    1.4684702
:EIG00031:       1.5178930    1.6967672    1.7187678    1.7928402    2.0906313
:EIG00036:       2.1387562    2.1754858    2.3940794    2.4227007    2.5312572
       ********************************************************

:KPT   :      NUMBER OF K-POINTS:   288
:GAP (global)   :    0.0    Ry =     0.0   eV (metal)
         Bandranges (emin - emax) and occupancy:
:BAN00005:   5   -0.274171   -0.063170  2.00000000
:BAN00006:   6   -0.243807   -0.027596  2.00000000
:BAN00007:   7   -0.191742   -0.018208  2.00000000
:BAN00008:   8   -0.083731   -0.003797  2.00000000
:BAN00009:   9    0.881081    1.051474  2.00000000
:BAN00010:  10    0.930442    1.067386  2.00000000
:BAN00011:  11    0.971331    1.111516  2.00000000
:BAN00012:  12    1.036516    1.117560  1.96600294
:BAN00013:  13    1.063556    1.135909  1.28701139
:BAN00014:  14    1.089719    1.147322  0.73502314
:BAN00015:  15    1.107095    1.151473  0.01197920
:BAN00016:  16    1.118633    1.155524  0.00000000
:BAN00017:  17    1.139110    1.164826  0.00000000
:BAN00018:  18    1.145266    1.166412  0.00000000
:BAN00019:  19    1.154609    1.175031  0.00000000
:BAN00020:  20    1.157166    1.177235  0.00000000
        Energy to separate low and high energystates:    0.83108


:NOE  : NUMBER OF ELECTRONS          =   26.000

:FER  : F E R M I - ENERGY(TETRAH.M.)=   1.1116885591
:GMA  : POTENTIAL AND CHARGE CUT-OFF  12.00 Ry**.5

:POS001: ATOM   -1 X,Y,Z = 0.00000 0.89750 0.25000  MULT= 2  ZZ= 59.000  Pr1       

       LMMAX 16
       LM=   0 0  1 0  2 0  2 2  3 0  3 2  4 0  4 2  4 4  5 0  5 2  5 4  6 0  6 2  6 4  6 6

:CHA001: TOTAL VALENCE CHARGE INSIDE SPHERE   1 =   9.7992    (RMT=  2.3000 )
:PCS001: PARTIAL CHARGES SPHERE =  1 S,P,D,F,PX,PY,PZ,D-Z2,D-X2Y2,D-XY,D-XZ,D-YZ 
:QTL001: 1.9333 4.9699 0.8467 2.0465 1.6565 1.6515 1.6619 0.1653 0.1504 0.1738 0.1751 0.1821
        Q-s-low E-s-low   Q-p-low E-p-low   Q-d-low E-d-low   Q-f-low E-f-low
:EPL001:  1.8691 -1.4713    4.8835 -0.1655    0.0199 -0.2121    0.0064 -0.2173
        Q-s-hi  E-s-hi    Q-p-hi  E-p-hi    Q-d-hi  E-d-hi    Q-f-hi  E-f-hi 
:EPH001:  0.0642  1.0239    0.0863  1.0421    0.8269  1.0188    2.0401  1.0771

                      VXX         VYY         VZZ       UP TO R
:VZZ001:             0.28433     8.70946    -8.99379       2.300

:CHA  : TOTAL VALENCE CHARGE INSIDE UNIT CELL =      26.000017

:SUM  : SUM OF EIGENVALUES =           2.474059041


        1.ATOM      Pr1                  14 CORE STATES
       CORE-FORCE in mRy/a.u. = |F|      Fx             Fy             Fz
:FCO001:   1.ATOM   1623.281535448772      0.000000000000      0.000000000000   1623.281535448772

:1S 001: 1S               -3066.475061651 Ry
:2S 001: 2S                -492.228103874 Ry
:2PP001: 2P*               -465.326613699 Ry
:2P 001: 2P                -429.929326864 Ry
:3S 001: 3S                -105.326840378 Ry
:3PP001: 3P*                -93.864352396 Ry
:3P 001: 3P                 -86.856687014 Ry
:3DD001: 3D*                -66.782512467 Ry
:3D 001: 3D                 -65.271066532 Ry
:4S 001: 4S                 -19.993289279 Ry
:4PP001: 4P*                -15.699016767 Ry
:4P 001: 4P                 -14.170119073 Ry
:4DD001: 4D*                 -7.100154075 Ry
:4D 001: 4D                  -6.830239157 Ry
:CINT001 Core Integral Atom   1   45.998493

       DENSITY AT NUCLEUS
        JATOM        VALENCE       SEMI-CORE          CORE           TOTAL
:RTO001:   1      643.730458        0.000000   656826.530017   657470.260476
     
       CHARGES OF NEW CHARGE DENSITY
:NTO   : INTERSTITIAL CHARGE =     6.401608
:NPC   : PW Pseudocharge     =    17.574314
:NTO001: CHARGE SPHERE  1    =    55.797695

:NEC01: NUCLEAR AND ELECTRONIC CHARGE    118.00000   117.99700
     
       CHARGES OF OLD CHARGE DENSITY
:OTO   : INTERSTITIAL CHARGE =     6.404653
:OPC   : PW Pseudocharge     =    17.582646
:OTO001: CHARGE SPHERE  1    =    55.797674

:NEC02: NUCLEAR AND ELECTRONIC CHARGE    118.00000   118.00000
     
       CONVERGENCE TEST
:DTO001: DIFFERENCE IN SPHERE  1 =  0.0000504

:DIS  :  CHARGE DISTANCE       ( 0.0000504 for atom    1 spin 1)      0.0000504
 PW Mixed is          316
 
******************************************************
* MULTISECANT MIXING VER9 RELEASE 10.4.0              *
* Standard Mode with controls                        *
* Fixed density scale                                *
* Regularization       1.000E-04                     *
* Trust Upper Limit    5.000E+00                     *
* Max Number of Memory Steps    8                    *
******************************************************
 
:PWTMP   1.8960E+02  1.9467E+02  2.9153E+02
:PLANE:  PW TOTAL      6.0284 DISTAN   3.93E-05  6.51E-04 %
:CHARG:  CLM/ATOM   1381.9484 DISTAN   1.25E-04  9.03E-06 %
 
Step History
        DMIX         DMIXT        Red     Pred      Trust     Lambda    MagRel    MagAbs     Beta
  5   1.1172E-01   1.1172E-01  3.73E-01  4.54E-01  5.53E-01  2.39E+00  2.82E-01  2.80E-01  8.00E-01
  6   1.1938E-01   1.1938E-01  5.36E-01  7.00E-01  8.27E-01  1.54E+00  4.10E-01  1.52E-01  1.00E+00
  7   1.7177E-01   1.7177E-01  5.09E-01  7.53E-01  1.10E+00  8.73E-01  5.85E-01  1.16E-01  1.00E+00
  8   3.1673E-01   3.1673E-01  4.89E-01  3.47E-01  1.66E+00  1.31E+00  6.24E-01  6.31E-02  1.00E+00
  9   2.2275E-01   2.2275E-01  5.51E-01  5.37E-01  2.22E+00  1.87E+00  3.90E-01  1.93E-02  1.00E+00
 10   2.6522E-01   2.6522E-01  1.70E-01  2.79E-01  2.96E+00  1.21E+00  3.15E-01  8.56E-03  8.27E-01
 11   2.8947E-01   2.8947E-01  4.99E-01  4.50E-01  3.94E+00  1.72E+00  6.57E-01  3.04E-03  1.00E+00
 12   3.5000E-01   3.5000E-01  7.27E-01  1.96E-01  5.26E+00  1.61E+00  4.00E-01  9.21E-04  1.00E+00
 13   2.3525E-01   2.3525E-01 -1.00E+00  1.20E-01  7.01E+00  1.00E+00  2.84E-01  4.76E-04  1.00E+00
:JACOBIANS    1.208E+00   3.104E+00
  
:NORMS:  1/Froebius, Min, Max, Used   0.6603E+00  0.5857E+00  0.1016E+01  0.7393E+00
:INFO :  Number of Memory Steps    8 Skipping    4
:INFO :  SLambda=    1.4334466147  Max    1.4334466147
:PREDicted Charge, CTotal, PW Trust    5.006E-05   1.001E-04   1.503E-04
:PREDicted DMix, Beta, BLim   2.7052E-01  1.0450E+00  4.2966E+00

Eigenvalues, unscaled except for SY+YY
   #     SY Real        SY Imag          SS             YY         SY+YY Real      SY+YY Imag
   1   2.192512E+00   0.000000E+00   2.164755E+00   3.961122E+00   6.208085E+00   0.000000E+00
   2   1.016708E+00   0.000000E+00   8.927029E-01   2.079709E+00   4.065042E+00   0.000000E+00
   3   9.219332E-01   0.000000E+00   3.396649E-01   1.486542E+00   3.125330E+00   0.000000E+00
   4   1.491602E-01   0.000000E+00   5.537090E-02   3.172264E-01   5.736007E-01   0.000000E+00
   5   4.244182E-02   0.000000E+00   2.404890E-02   1.006449E-01   1.679228E-01   0.000000E+00
   6   1.983455E-02   0.000000E+00   9.810524E-03   4.698469E-02   7.525455E-02   0.000000E+00
   7   6.802566E-04   0.000000E+00   9.775165E-04   5.844641E-03   1.266202E-02   0.000000E+00
   8   3.475911E-03   0.000000E+00   3.017845E-04   1.926388E-03   2.931157E-03   0.000000E+00
 
:INFO :  Singular value  6.223E+00 Weight  1.000E+00 Projection -8.646E-07
:INFO :  Singular value  4.113E+00 Weight  1.000E+00 Projection  1.697E-06
:INFO :  Singular value  3.082E+00 Weight  1.000E+00 Projection -2.919E-06
:INFO :  Singular value  5.737E-01 Weight  1.000E+00 Projection -5.122E-05
:INFO :  Singular value  1.679E-01 Weight  1.000E+00 Projection -1.184E-05
:INFO :  Singular value  7.525E-02 Weight  1.000E+00 Projection  9.058E-05
:INFO :  Singular value  1.266E-02 Weight  9.990E-01 Projection -1.695E-04
:INFO :  Singular value  2.930E-03 Weight  9.821E-01 Projection -1.599E-03
:RANK :  ACTIVE   7.98/8  =  99.76 % ; YY RANK   7.95/8  =  99.43 %
 
:BLIM :  VZERO Control Off
:TRUST:  Step 9.34E+00  Charge 1.57E-02 (e) CTO  3.70E-02 (e) PW  8.07E-02 (e)
:DIRM :  MEMORY  8/8  SCALE   1.000 RED  0.08 PRED  0.12 NEXT  0.92 
:TRAVE:  Charge 2.52E-04 (e) CTO  5.05E-04 (e) PW  1.08E-03 (e)
:DIRP :  |MSR1|= 2.625E-05 |PRATT|= 3.925E-05 ANGLE=  30.6 DEGREES
:DIRQ :  |MSR1|= 5.862E-05 |PRATT|= 1.248E-04 ANGLE=  19.5 DEGREES
:DIRT :  |MSR1|= 6.423E-05 |PRATT|= 1.308E-04 ANGLE=  22.1 DEGREES
:MIX  :   MSE1   REGULARIZATION:  3.96E-04 GREED: 0.27121  Newton 1.00  0.4910                
     
       CHARGES OF MIXED CHARGE DENSITY
:CTO   : INTERSTITIAL CHARGE =     6.404642
:CPC   : PW Pseudocharge     =    17.582583
:CTO001: CHARGE SPHERE  1    =    55.797679

:NEC03: NUCLEAR AND ELECTRONIC CHARGE    118.00000   118.00000

PW CHANGE     H    K    L      Current       Change    Residue
:PTO001:      0    0    0  8.22810292E-02 -2.518E-07 -4.625E-07
:PTO003:      0    2    0  1.88477223E-02 -1.237E-07 -1.281E-07
:PTO004:     -1    1    0  8.81454559E-02 -3.871E-07 -4.831E-07
:PTO005:      0    2   -1 -1.00479060E-01  5.343E-07  6.395E-07
:PTO006:      0    0   -2 -5.21190587E-02  2.455E-07  2.177E-07
:PTO007:     -1    1   -1 -1.03731962E-01  4.108E-07  2.973E-07
:PTO008:      0    2   -2 -1.41641951E-02  7.300E-08  3.055E-08
:PTO009:     -1    1   -2 -7.07016833E-02  1.330E-07 -2.863E-07
:PTO011:     -1    3    0 -1.03619114E-02  6.636E-08  4.850E-08
:PTO012:     -1    3   -1 -4.17714106E-02  8.746E-08 -3.331E-07
:PTO013:      0    4    0 -6.95258745E-03  8.344E-08  8.889E-08
:PTO014:      0    2   -3  1.62694857E-02 -6.227E-08  1.143E-07

:ENE  : ********** TOTAL ENERGY IN Ry =       -36944.31149183

       TOTAL FORCE IN mRy/a.u. = |F|     Fx             Fy             Fz     with/without FOR in case.in2
:FOR001:   1.ATOM          6.747          0.000          0.000          6.747 partial forces
       TOTAL FORCE WITH RESPECT TO GLOBAL CARTESIAN COORDINATES:
:FCA001:   1.ATOM                         0.000          6.747          0.000 partial forces
       TOTAL FORCE WITH RESPECT TO THE GLOBAL COORDINATE SYSTEM:
:FGL001:   1.ATOM                 0.000000000     6.746977972     0.000000000 partial forces
