
------- delta_Pu_18.scf0 --------


            ---------
:ITE097: 97. ITERATION
            ---------

:NATO :    1 INDEPENDENT AND    1 TOTAL ATOMS IN UNITCELL
       SUBSTANCE: cubic fcc  (delta)                                          

       LATTICE                      = F   
:POT  : POTENTIAL OPTION    5
:LAT  : LATTICE CONSTANTS=  9.57297  9.57297  9.57297    1.571    1.571    1.571
:VOL  : UNIT CELL VOLUME =     219.32080
       MODE OF CALCULATION IS       = RELA
       NON-SPINPOLARIZED CALCULATION
:IFFT  : FFT-parameters:   80   80   80 Factor: 2.00
       ATOMNUMBER=  1 Pu  0+     VCOUL-ZERO = -0.21466E-01
:FIT001: LUSE= 13 SIGMA OF V-XC FIT FOR ATOM  1  0.3969836E-05
:FIT001: LUSE= 13 SIGMA OF V-XC FIT FOR ATOM  1  0.3969836E-05
:DEN  : DENSITY INTEGRAL  =        -21861.08297635   (Ry)
       ELS_POTENTIAL_AT Z=0 and Z=0.5:  -3.65873  -3.65873
       ELS_POTENTIAL_AT Y=0 and Y=0.5:   0.00000   0.00000
:VZERO:v0,v0c,v0x  -4.77425  -3.65873  -1.11553 v5,v5c,v5x  -4.77425  -3.65873  -1.11553
:VZERY:v0,v0c,v0x  -0.78264   0.00000  -0.78264 v5,v5c,v5x  -0.78264   0.00000  -0.78264
:VZERX:v0,v0c,v0x  -0.78264   0.00000  -0.78264 v5,v5c,v5x  -0.78264   0.00000  -0.78264

------- delta_Pu_18.scf1 --------

          ATOMIC SPHERE DEPENDENT PARAMETERS FOR ATOM  Pu  0+    
:e__0001: OVERALL ENERGY PARAMETER IS    0.6275
          OVERALL BASIS SET ON ATOM IS LAPW
:E0_0001: E( 0)=    0.6275
             APW+lo
:E0_0001: E( 0)=   -2.5720   E(BOTTOM)=   -3.349   E(TOP)=   -1.795
             LOCAL ORBITAL
:E1_0001: E( 1)=   -1.3800   E(BOTTOM)=   -1.656   E(TOP)= -200.000
             APW+lo
:E1_0001: E( 1)=    0.6275
             LOCAL ORBITAL
:E3_0001: E( 3)=    0.6275   E(BOTTOM)=    0.397   E(TOP)= -200.000
             APW+lo
:E2_0001: E( 2)=    0.6275   E(BOTTOM)=    0.552   E(TOP)= -200.000
             APW+lo

       K=   0.00000   0.00000   0.00000            1
:RKM  : MATRIX SIZE  279LOs:  20  RKM= 8.47  WEIGHT= 1.00  PGR:    
       EIGENVALUES ARE:
:EIG00001:      -2.5319908   -0.4969467   -0.4969467   -0.4969467    0.4661033
:EIG00006:       0.8415891    0.8872422    0.8872422    0.8872422    0.9486227
:EIG00011:       0.9486227    0.9486227    0.9973303    0.9973303    0.9973303
:EIG00016:       1.2191004    1.2191004    1.6709921    1.8917264    1.8924983
:EIG00021:       1.8924983    1.8924983    2.8341424    2.8341424    2.8341424
:EIG00026:       2.8656854    2.8656854    2.8656854    3.0295704    3.0295704
:EIG00031:       3.2678749    3.6076204    3.6076204    3.6076204    4.0726379
:EIG00036:       4.0726379    4.2320894    4.2320894    4.2320894    4.2385525
:EIG00041:       4.2385525    4.2385525    4.3554621    4.3554621    4.3554621
:EIG00046:       4.6292362    4.6527862    4.6527862    4.6527862    4.7851203
 
:EIG00051:       4.7851203    4.8740213    4.8740213    4.8740213    4.9090284
:EIG00056:       4.9090284    4.9090284    4.9349010    5.0460411    5.1756885
:EIG00061:       5.1756885    5.1756885    5.2953874    5.2953874    5.2953874
:EIG00066:       5.5412493    6.4004554    6.4004554    6.4281092    6.9832448
:EIG00071:       6.9832448    6.9832448    7.1154657    7.1154657    7.2288598
:EIG00076:       7.2288598    7.2288598
       ********************************************************

:KPT   :      NUMBER OF K-POINTS:   286

------- delta_Pu_18.scfso --------
   0.0   0.0 angle (M,z), angle (M,x) deg
 
        SPIN-ORBIT EIGENVALUES:
     K=   0.00000   0.00000   0.00000            1
      MATRIX SIZE=  154   WEIGHT= 1.00
     EIGENVALUES ARE:
          -2.5319908   -2.5319908   -0.9455556   -0.9455556   -0.3028448
          -0.3028448   -0.3028448   -0.3028448    0.4661033    0.4661033
           0.8291225    0.8291225    0.8570596    0.8570596    0.8570596
           0.8570596    0.9175661    0.9175661    0.9479719    0.9479719
           0.9687783    0.9687783    0.9687783    0.9687783    0.9841847
           0.9841847    0.9841847    0.9841847    1.0156969    1.0156969
           1.2213268    1.2213268    1.2213268    1.2213268    1.6717532
           1.6717532    1.8813090    1.8813090    1.8917264    1.8917264

           1.8970780    1.8970780    1.8970780    1.8970780    2.6688860
           2.6688860    2.8153342    2.8153342    2.8153342    2.8153342
           2.8644899    2.8644899    2.9737457    2.9737457    2.9737457
           2.9737457    3.0329057    3.0329057    3.0329057    3.0329057
           3.2678749    3.2678749    3.6052563    3.6052563    3.6089840
           3.6089840    3.6089840    3.6089840    4.0708095    4.0708095
           4.0708095    4.0708095    4.2288427    4.2288427    4.2288427
           4.2288427    4.2385313    4.2385313    4.2385633    4.2385633

           4.2385633    4.2385633    4.2450187    4.2450187    4.2599457
           4.2599457    4.4212099    4.4212099    4.4212099    4.4212099

       ********************************************************

------- delta_Pu_18.scf2 --------
:GMA  : POTENTIAL AND CHARGE CUT-OFF  12.00 Ry**.5
         Bandranges (emin - emax) and occupancy:
:BAN00008:   8   -0.374307   -0.302845  1.00000000
:BAN00009:   9    0.466103    0.787116  1.00000000
:BAN00010:  10    0.466103    0.787116  1.00000000
:BAN00011:  11    0.746239    0.848263  1.00000000
:BAN00012:  12    0.746239    0.848263  1.00000000
:BAN00013:  13    0.826112    0.867125  1.00000000
:BAN00014:  14    0.826112    0.867125  1.00000000
:BAN00015:  15    0.857060    0.871887  0.98187001
:BAN00016:  16    0.857060    0.871887  0.98187001
:BAN00017:  17    0.868981    0.926225  0.01812999
:BAN00018:  18    0.868981    0.926225  0.01812999
:BAN00019:  19    0.895943    0.947972  0.00000000
:BAN00020:  20    0.895943    0.947972  0.00000000
:BAN00021:  21    0.927860    0.968778  0.00000000
:BAN00022:  22    0.927860    0.968778  0.00000000
:BAN00023:  23    0.947811    0.970535  0.00000000
        Energy to separate low and high energystates:    0.41610


:NLDA  : NUMBER OF ELECTRONS          =  16.000

:FLDA  : F E R M I - ENERGY           =   1.36972




:POS001: AT.NR.   1 POSITION = 0.00000 0.00000 0.00000  MULTIPLICITY =  1

       LMMAX  5
       LM=   0 0  4 0  4 4  6 0  6 4
:FER DMFT Fermi Energy   0.82954
:EORB    0.21105968
:SUM SUM OF DMFT BAND ENERGIES   -2.21290730

:CHA001: TOTAL CHARGE INSIDE SPHERE   1 =    11.536456
:PCS001: PARTIAL CHARGES SPHERE =  1 S,P,D,F,      D-EG,D-T2G 
:QTL001: 1.9527 4.5956 0.2978 4.6899 0.0000 0.0000 0.0000 0.1126 0.1915 0.0000 0.0000 0.0000
        Q-s-low E-s-low   Q-p-low E-p-low   Q-d-low E-d-low   Q-f-low E-f-low
:EPL001:  1.8717 -2.5243    4.5141 -0.5946    0.0012 -0.4148    0.0005 -0.3996
        Q-s-hi  E-s-hi    Q-p-hi  E-p-hi    Q-d-hi  E-d-hi    Q-f-hi  E-f-hi 
:EPH001:  0.0811  0.6821    0.0815  0.7363    0.2966  0.7665    4.6895  0.8490

:CHA  : TOTAL CHARGE INSIDE UNIT CELL =      16.000000

:ESUM  : SUM OF EIGENVALUES =          -1.933654696


------- delta_Pu_18.scfc --------

        1.ATOM      Pu  0+               21 CORE STATES
:1S 001: 1S               -8966.859100234 Ry
:2S 001: 2S               -1687.528014455 Ry
:2PP001: 2P*              -1628.222978218 Ry
:2P 001: 2P               -1315.070248064 Ry
:3S 001: 3S                -428.059330412 Ry
:3PP001: 3P*               -401.135549396 Ry
:3P 001: 3P                -328.573473682 Ry
:3DD001: 3D*               -286.334668679 Ry
:3D 001: 3D                -271.792031871 Ry
:4S 001: 4S                -109.542839454 Ry
:4PP001: 4P*                -97.355029961 Ry
:4P 001: 4P                 -78.210344665 Ry
:4DD001: 4D*                -58.922896857 Ry
:4D 001: 4D                 -55.428477483 Ry
:5S 001: 5S                 -23.703592540 Ry
:5PP001: 5P*                -18.886739096 Ry
:5P 001: 5P                 -14.201364428 Ry
:4FF001: 4F*                -30.027139521 Ry
:4F 001: 4F                 -29.099179215 Ry
:5DD001: 5D*                 -7.171115307 Ry
:5D 001: 5D                  -6.473785993 Ry

------- delta_Pu_18.scfm --------

       DENSITY AT NUCLEUS
        JATOM    VALENCE       SEMI-CORE            CORE           TOTAL
:RTO001:   1    23466.185472        0.000000 45141805.200031 45165271.385504
     
       CHARGES OF NEW CHARGE DENSITY
:NTO  : TOTAL   INTERSTITIAL CHARGE=    4.4635428
:NTO001: TOTAL   CHARGE IN SPHERE  1 =       89.5270535

:NEC01: NUCLEAR AND ELECTRONIC CHARGE     94.00000    93.99060     1.00010
     
       CHARGES OF OLD CHARGE DENSITY
:OTO  : TOTAL   INTERSTITIAL CHARGE=    4.4729635
:OTO001: TOTAL   CHARGE IN SPHERE  1 =       89.5270365

:NEC02: NUCLEAR AND ELECTRONIC CHARGE     94.00000    94.00000     1.00000
     
       CONVERGENCE TEST
:DTO001: TOTAL   DIFFERENCE CHARGE**2 IN SPHERE  1 =  0.0003972

:DIS  :  CHARGE DISTANCE       ( 0.0003972 for atom    1 spin 1)      0.0003972
:BIG check (qbig,qrms,qtot)    0.132D-03   0.281D-03   0.397D-03
 
******************************************************
* MULTISECANT MIXING VER4 OPTIONS                    *
* Unpredicted Step Limit   0.100000                  *
* Plane Wave Dynamic Rescaling                       *
* Dynamic Regularization active                      *
* Upper Cutoff Lambda  1.0E-01 Lower 3.5E-04         *
* SQRT Multiplicity/Degeneracy                       *
* Max Number of Memory Steps    8                    *
******************************************************
 
:PLANE:  INTERSTITIAL TOTAL      1.83058 DISTAN  1.319E-02 % 
:CHARG:  CLM CHARGE   /ATOM    713.22993 DISTAN  4.061E-04 % 
:MIX  :  PRATT  REGULARIZATION: 3.50E-04  GREED: 0.035
     
       CHARGES OF MIXED CHARGE DENSITY
:CTO  : TOTAL   INTERSTITIAL CHARGE=    4.4729629
:CTO001: TOTAL   CHARGE IN SPHERE  1 =       89.5270371

:NEC03: NUCLEAR AND ELECTRONIC CHARGE     94.00000    94.00000     1.00000


:ENE  : ********** TOTAL ENERGY IN Ry =       -59354.72966116


------- delta_Pu_18.scf0 --------


            ---------
:ITE098: 98. ITERATION
            ---------

:NATO :    1 INDEPENDENT AND    1 TOTAL ATOMS IN UNITCELL
       SUBSTANCE: cubic fcc  (delta)                                          

       LATTICE                      = F   
:POT  : POTENTIAL OPTION    5
:LAT  : LATTICE CONSTANTS=  9.57297  9.57297  9.57297    1.571    1.571    1.571
:VOL  : UNIT CELL VOLUME =     219.32080
       MODE OF CALCULATION IS       = RELA
       NON-SPINPOLARIZED CALCULATION
:IFFT  : FFT-parameters:   80   80   80 Factor: 2.00
       ATOMNUMBER=  1 Pu  0+     VCOUL-ZERO = -0.21467E-01
:FIT001: LUSE= 13 SIGMA OF V-XC FIT FOR ATOM  1  0.3969796E-05
:FIT001: LUSE= 13 SIGMA OF V-XC FIT FOR ATOM  1  0.3969796E-05
:DEN  : DENSITY INTEGRAL  =        -21861.08224390   (Ry)
       ELS_POTENTIAL_AT Z=0 and Z=0.5:  -3.65872  -3.65872
       ELS_POTENTIAL_AT Y=0 and Y=0.5:   0.00000   0.00000
:VZERO:v0,v0c,v0x  -4.77425  -3.65872  -1.11552 v5,v5c,v5x  -4.77425  -3.65872  -1.11552
:VZERY:v0,v0c,v0x  -0.78264   0.00000  -0.78264 v5,v5c,v5x  -0.78264   0.00000  -0.78264
:VZERX:v0,v0c,v0x  -0.78264   0.00000  -0.78264 v5,v5c,v5x  -0.78264   0.00000  -0.78264

------- delta_Pu_18.scf1 --------

          ATOMIC SPHERE DEPENDENT PARAMETERS FOR ATOM  Pu  0+    
:e__0001: OVERALL ENERGY PARAMETER IS    0.6275
          OVERALL BASIS SET ON ATOM IS LAPW
:E0_0001: E( 0)=    0.6275
             APW+lo
:E0_0001: E( 0)=   -2.5720   E(BOTTOM)=   -3.349   E(TOP)=   -1.795
             LOCAL ORBITAL
:E1_0001: E( 1)=   -1.3800   E(BOTTOM)=   -1.656   E(TOP)= -200.000
             APW+lo
:E1_0001: E( 1)=    0.6275
             LOCAL ORBITAL
:E3_0001: E( 3)=    0.6275   E(BOTTOM)=    0.397   E(TOP)= -200.000
             APW+lo
:E2_0001: E( 2)=    0.6275   E(BOTTOM)=    0.552   E(TOP)= -200.000
             APW+lo

       K=   0.00000   0.00000   0.00000            1
:RKM  : MATRIX SIZE  279LOs:  20  RKM= 8.47  WEIGHT= 1.00  PGR:    
       EIGENVALUES ARE:
:EIG00001:      -2.5319915   -0.4969474   -0.4969474   -0.4969474    0.4661023
:EIG00006:       0.8415879    0.8872412    0.8872412    0.8872412    0.9486216
:EIG00011:       0.9486216    0.9486216    0.9973295    0.9973295    0.9973295
:EIG00016:       1.2190996    1.2190996    1.6709910    1.8917250    1.8924970
:EIG00021:       1.8924970    1.8924970    2.8341413    2.8341413    2.8341413
:EIG00026:       2.8656845    2.8656845    2.8656845    3.0295696    3.0295696
:EIG00031:       3.2678739    3.6076192    3.6076192    3.6076192    4.0726368
:EIG00036:       4.0726368    4.2320887    4.2320887    4.2320887    4.2385519
:EIG00041:       4.2385519    4.2385519    4.3554609    4.3554609    4.3554609
:EIG00046:       4.6292350    4.6527851    4.6527851    4.6527851    4.7851194
 
:EIG00051:       4.7851194    4.8740201    4.8740201    4.8740201    4.9090272
:EIG00056:       4.9090272    4.9090272    4.9349002    5.0460401    5.1756874
:EIG00061:       5.1756874    5.1756874    5.2953861    5.2953861    5.2953861
:EIG00066:       5.5412478    6.4004545    6.4004545    6.4281082    6.9832437
:EIG00071:       6.9832437    6.9832437    7.1154648    7.1154648    7.2288592
:EIG00076:       7.2288592    7.2288592
       ********************************************************

:KPT   :      NUMBER OF K-POINTS:   286

------- delta_Pu_18.scfso --------
   0.0   0.0 angle (M,z), angle (M,x) deg
 
        SPIN-ORBIT EIGENVALUES:
     K=   0.00000   0.00000   0.00000            1
      MATRIX SIZE=  154   WEIGHT= 1.00
     EIGENVALUES ARE:
          -2.5319915   -2.5319915   -0.9455562   -0.9455562   -0.3028454
          -0.3028454   -0.3028454   -0.3028454    0.4661023    0.4661023
           0.8291213    0.8291213    0.8570586    0.8570586    0.8570586
           0.8570586    0.9175652    0.9175652    0.9479708    0.9479708
           0.9687772    0.9687772    0.9687772    0.9687772    0.9841838
           0.9841838    0.9841838    0.9841838    1.0156961    1.0156961
           1.2213260    1.2213260    1.2213260    1.2213260    1.6717521
           1.6717521    1.8813077    1.8813077    1.8917250    1.8917250

           1.8970767    1.8970767    1.8970767    1.8970767    2.6688851
           2.6688851    2.8153332    2.8153332    2.8153332    2.8153332
           2.8644888    2.8644888    2.9737448    2.9737448    2.9737448
           2.9737448    3.0329048    3.0329048    3.0329048    3.0329048
           3.2678739    3.2678739    3.6052552    3.6052552    3.6089828
           3.6089828    3.6089828    3.6089828    4.0708085    4.0708085
           4.0708085    4.0708085    4.2288420    4.2288420    4.2288420
           4.2288420    4.2385307    4.2385307    4.2385626    4.2385626

           4.2385626    4.2385626    4.2450180    4.2450180    4.2599445
           4.2599445    4.4212088    4.4212088    4.4212088    4.4212088

       ********************************************************

------- delta_Pu_18.scf2 --------
:GMA  : POTENTIAL AND CHARGE CUT-OFF  12.00 Ry**.5
         Bandranges (emin - emax) and occupancy:
:BAN00008:   8   -0.374308   -0.302845  1.00000000
:BAN00009:   9    0.466102    0.787115  1.00000000
:BAN00010:  10    0.466102    0.787115  1.00000000
:BAN00011:  11    0.746238    0.848262  1.00000000
:BAN00012:  12    0.746238    0.848262  1.00000000
:BAN00013:  13    0.826111    0.867124  1.00000000
:BAN00014:  14    0.826111    0.867124  1.00000000
:BAN00015:  15    0.857059    0.871886  0.98187037
:BAN00016:  16    0.857059    0.871886  0.98187037
:BAN00017:  17    0.868979    0.926224  0.01812963
:BAN00018:  18    0.868979    0.926224  0.01812963
:BAN00019:  19    0.895942    0.947971  0.00000000
:BAN00020:  20    0.895942    0.947971  0.00000000
:BAN00021:  21    0.927859    0.968777  0.00000000
:BAN00022:  22    0.927859    0.968777  0.00000000
:BAN00023:  23    0.947810    0.970534  0.00000000
        Energy to separate low and high energystates:    0.41610


:NLDA  : NUMBER OF ELECTRONS          =  16.000

:FLDA  : F E R M I - ENERGY           =   1.36972




:POS001: AT.NR.   1 POSITION = 0.00000 0.00000 0.00000  MULTIPLICITY =  1

       LMMAX  5
       LM=   0 0  4 0  4 4  6 0  6 4
:FER DMFT Fermi Energy   0.82948
:EORB    0.21156937
:SUM SUM OF DMFT BAND ENERGIES   -2.21343041

:CHA001: TOTAL CHARGE INSIDE SPHERE   1 =    11.537102
:PCS001: PARTIAL CHARGES SPHERE =  1 S,P,D,F,      D-EG,D-T2G 
:QTL001: 1.9527 4.5956 0.2977 4.6908 0.0000 0.0000 0.0000 0.1125 0.1914 0.0000 0.0000 0.0000
        Q-s-low E-s-low   Q-p-low E-p-low   Q-d-low E-d-low   Q-f-low E-f-low
:EPL001:  1.8717 -2.5243    4.5141 -0.5946    0.0012 -0.4148    0.0005 -0.3996
        Q-s-hi  E-s-hi    Q-p-hi  E-p-hi    Q-d-hi  E-d-hi    Q-f-hi  E-f-hi 
:EPH001:  0.0811  0.6821    0.0815  0.7362    0.2965  0.7665    4.6903  0.8490

:CHA  : TOTAL CHARGE INSIDE UNIT CELL =      16.000000

:ESUM  : SUM OF EIGENVALUES =          -1.933642869


------- delta_Pu_18.scfc --------

        1.ATOM      Pu  0+               21 CORE STATES
:1S 001: 1S               -8966.859116505 Ry
:2S 001: 2S               -1687.528029647 Ry
:2PP001: 2P*              -1628.222993737 Ry
:2P 001: 2P               -1315.070263263 Ry
:3S 001: 3S                -428.059342881 Ry
:3PP001: 3P*               -401.135562101 Ry
:3P 001: 3P                -328.573485926 Ry
:3DD001: 3D*               -286.334681483 Ry
:3D 001: 3D                -271.792044524 Ry
:4S 001: 4S                -109.542848753 Ry
:4PP001: 4P*                -97.355039308 Ry
:4P 001: 4P                 -78.210353402 Ry
:4DD001: 4D*                -58.922905686 Ry
:4D 001: 4D                 -55.428486131 Ry
:5S 001: 5S                 -23.703596976 Ry
:5PP001: 5P*                -18.886743264 Ry
:5P 001: 5P                 -14.201367721 Ry
:4FF001: 4F*                -30.027148313 Ry
:4F 001: 4F                 -29.099187919 Ry
:5DD001: 5D*                 -7.171117958 Ry
:5D 001: 5D                  -6.473788432 Ry

------- delta_Pu_18.scfm --------

       DENSITY AT NUCLEUS
        JATOM    VALENCE       SEMI-CORE            CORE           TOTAL
:RTO001:   1    23466.105635        0.000000 45141805.245709 45165271.351343
     
       CHARGES OF NEW CHARGE DENSITY
:NTO  : TOTAL   INTERSTITIAL CHARGE=    4.4628967
:NTO001: TOTAL   CHARGE IN SPHERE  1 =       89.5276995

:NEC01: NUCLEAR AND ELECTRONIC CHARGE     94.00000    93.99060     1.00010
     
       CHARGES OF OLD CHARGE DENSITY
:OTO  : TOTAL   INTERSTITIAL CHARGE=    4.4729629
:OTO001: TOTAL   CHARGE IN SPHERE  1 =       89.5270371

:NEC02: NUCLEAR AND ELECTRONIC CHARGE     94.00000    94.00000     1.00000
     
       CONVERGENCE TEST
:DTO001: TOTAL   DIFFERENCE CHARGE**2 IN SPHERE  1 =  0.0008751

:DIS  :  CHARGE DISTANCE       ( 0.0008751 for atom    1 spin 1)      0.0008751
:BIG check (qbig,qrms,qtot)    0.292D-03   0.619D-03   0.875D-03
 
******************************************************
* MULTISECANT MIXING VER4 OPTIONS                    *
* Unpredicted Step Limit   0.100000                  *
* Plane Wave Dynamic Rescaling                       *
* Dynamic Regularization active                      *
* Upper Cutoff Lambda  1.0E-01 Lower 3.5E-04         *
* SQRT Multiplicity/Degeneracy                       *
* Max Number of Memory Steps    8                    *
******************************************************
 
:PLANE:  INTERSTITIAL TOTAL      1.83057 DISTAN  1.358E-02 % 
:CHARG:  CLM CHARGE   /ATOM    713.22992 DISTAN  4.509E-04 % 
:INFO :  Dynamic rescale   1.246E+01  1.000E-01
:INFO :  Number of Memory Steps    1 Skipping    0
:INFO :  Bounds         0.327D-01  0.200D+00  0.107D+00  0.327D-01
:DIRM :  MEMORY 1/8 RESCALE  12.46 RED 1.069 PRED 1.000 NEXT 0.935 COND 1.00E+00
:DIRP :  |BROYD|= 1.273E-05 |PRATT|= 1.014E-04 ANGLE= 173.5 DEGREES
:DIRB :  |BROYD|= 1.780E-05 |PRATT|= 1.461E-04 ANGLE= 169.1 DEGREES
:MIX  :  MSR1   REGULARIZATION: 3.50E-04  GREED: 0.033
     
       CHARGES OF MIXED CHARGE DENSITY
:CTO  : TOTAL   INTERSTITIAL CHARGE=    4.4729641
:CTO001: TOTAL   CHARGE IN SPHERE  1 =       89.5270359

:NEC03: NUCLEAR AND ELECTRONIC CHARGE     94.00000    94.00000     1.00000


:ENE  : ********** TOTAL ENERGY IN Ry =       -59354.72966079

