
------- case.scf0 --------
 Flat Integration
 New Mode for Coulomb Integral
 Consistent 3/8+Simpson combinations
 Extension of core to zero
 LDM version in phi
 Fifth-order quadrature in outwin


            ---------
:ITE024: 24. ITERATION
            ---------

:NATO :    1 INDEPENDENT AND    1 TOTAL ATOMS IN UNITCELL
       SUBSTANCE: blebleble                                                   

       LATTICE                      = F   
:POT  : POTENTIAL OPTION EX_LDA EC_LDA VX_LDA VC_LDA
:LAT  : LATTICE CONSTANTS=  9.24236  9.24236  9.24236    1.571    1.571    1.571
:VOL  : UNIT CELL VOLUME =     197.37341
       MODE OF CALCULATION IS       = RELA
       NON-SPINPOLARIZED CALCULATION
:IFFT  : FFT-parameters:   72   72   72 Factor: 2.00


   CONVERGENCE PARAMETER FOR PSEUDOCHARGE: NCON=  9
   MAXIMAL VALUE OF RMT(JATOM)*ABSK(NKK) : RK  =29.82719


:VKCOUL :  VK-COUL convergence: 0.208E-06
       ATOMNUMBER=  1 Pr         VCOUL-ZERO =  0.41767E+00
:FIT001: LUSE= 13 SIGMA OF V-XC FIT FOR ATOM  1  0.5069136E-04
:FIT001: LUSE= 13 SIGMA OF V-XC FIT FOR ATOM  1  0.5069136E-04
:DEN  : DENSITY INTEGRAL  =         -7080.99378901   (Ry)
       ELS_POTENTIAL_AT Z=0 and Z=0.5:  -2.66804  -2.66804
       ELS_POTENTIAL_AT Y=0 and Y=0.5:   0.00000   0.00000
:VZERO:v0,v0c,v0x  -3.69176  -2.66804  -1.02372 v5,v5c,v5x  -3.69176  -2.66804  -1.02372
:VZERY:v0,v0c,v0x  -0.77323   0.00000  -0.77323 v5,v5c,v5x  -0.77323   0.00000  -0.77323
:VZERX:v0,v0c,v0x  -0.77323   0.00000  -0.77323 v5,v5c,v5x  -0.77323   0.00000  -0.77323

------- case.scf1 --------
:LMAX-WF:   10   Non-Spherical LMAX:   4

          ATOMIC SPHERE DEPENDENT PARAMETERS FOR ATOM  Pr        
:e__0001: OVERALL ENERGY PARAMETER IS    0.5385
          OVERALL BASIS SET ON ATOM IS LAPW
:E0_0001: E( 0)=    0.5385
             APW+lo
:E0_0001: E( 0)=   -1.9206   E(BOTTOM)=   -2.302   E(TOP)=   -1.539  4  5   188
             LOCAL ORBITAL
:E1_0001: E( 1)=    0.9385
             APW+lo
:E1_0001: E( 1)=   -0.5324   E(BOTTOM)=   -1.180   E(TOP)=    0.115  3  4   182
             LOCAL ORBITAL
:E3_0001: E( 3)=    0.7407   E(BOTTOM)=    0.600   E(TOP)=    0.881  0  1   114
             APW+lo
:E2_0001: E( 2)=    0.5385   E(BOTTOM)=    0.394   E(TOP)= -200.000  2 -1    81
             APW+lo

       K=   0.00000   0.00000   0.00000            1
:RKM  : MATRIX SIZE   157LOs:  20  RKM= 8.33  WEIGHT= 1.00  PGR:    
       EIGENVALUES ARE:
:EIG00001:      -1.8954979   -0.4907526   -0.4907526   -0.4907526    0.4953706
:EIG00006:       0.7219722    0.7503129    0.7503129    0.7503129    0.7857873
:EIG00011:       0.7857873    0.7857873    0.8777993    0.8777993    0.8777993
:EIG00016:       1.0965460    1.0965460    1.5169755    1.7846505    1.7846505
:EIG00021:       1.7846505    1.8808167    2.7888194    2.7888194    2.7888194
:EIG00026:       2.9355728    2.9355728    2.9355728    3.0646581    3.0646581
:EIG00031:       3.5704731    3.7273642    3.7273642    3.7273642    4.2244427
:EIG00036:       4.2244427    4.4567299    4.4567299    4.4567299    4.5259658
:EIG00041:       4.5259658    4.5259658    4.5541496    4.5541496    4.5541496
:EIG00046:       4.8930866    4.8930866    4.8930866    4.9973105    4.9973105
 
:EIG00051:       5.0571895    5.2262684    5.2262684    5.2262684    5.2717579
:EIG00056:       5.2717579    5.2717579    5.3358632    5.3778139    5.4169577
:EIG00061:       5.4169577    5.4169577    5.8117382    5.8117382    5.8117382
:EIG00066:       6.3390951    7.1148581    7.1302164    7.1302164    7.6434273
:EIG00071:       7.6434273    7.6434273
       ********************************************************

:KPT   :      NUMBER OF K-POINTS:   165

------- case.scfso --------
   0.0   0.0 angle (M,z), angle (M,x) deg
 
        SPIN-ORBIT EIGENVALUES:
     K=   0.00000   0.00000   0.00000            1
      MATRIX SIZE=  144   WEIGHT= 1.00
     EIGENVALUES ARE:
          -1.8954979   -1.8954979   -0.6413754   -0.6413754   -0.4194983
          -0.4194983   -0.4194983   -0.4194983    0.4953706    0.4953706
           0.7190553    0.7190553    0.7405701    0.7405701    0.7405701
           0.7405701    0.7618525    0.7618525    0.7843691    0.7843691
           0.7918316    0.7918316    0.7918316    0.7918316    0.8737992
           0.8737992    0.8737992    0.8737992    0.8847427    0.8847427
           1.0968970    1.0968970    1.0968970    1.0968970    1.5170408
           1.5170408    1.7804033    1.7804033    1.7866923    1.7866923

           1.7866923    1.7866923    1.8808167    1.8808167    2.7835594
           2.7835594    2.7835594    2.7835594    2.7988229    2.7988229
           2.8545914    2.8545914    2.9771949    2.9771949    2.9771949
           2.9771949    3.0649579    3.0649579    3.0649579    3.0649579
           3.5704731    3.5704731    3.7269655    3.7269655    3.7275744
           3.7275744    3.7275744    3.7275744    4.2243952    4.2243952
           4.2243952    4.2243952    4.4552195    4.4552195    4.4552195
           4.4552195    4.4600894    4.4600894    4.4857708    4.4857708

       ********************************************************

------- case.scf2 --------
:GMA  : POTENTIAL AND CHARGE CUT-OFF  12.00 Ry**.5




:POS001: at.nr.   1 position = 0.00000 0.00000 0.50000  multiplicity =  1

       lmmax  5
       lm=   0 0  4 0  4 4  6 0  6 4
:FER gutzwiller fermi energy   0.75060
:EORB         -0.062774045
:SUM sum of gutz band energies         -3.574147164

:CHA001: total charge inside sphere   1 =    10.281555
:PCS001: partial charges sphere =  1 s,p,d,f,      d-eg,d-t2g 
:QTL001: 2.0387 5.3385 0.7936 2.1099 0.0000 0.0000 0.0000 0.2911 0.5026 0.0000 0.0000 0.0000

:CHA  : total charge inside unit cell =       6.499996

------- case.scfc --------

        1.ATOM      Pr                   14 CORE STATES
:1S 001: 1S               -3066.860574370 Ry
:2S 001: 2S                -492.614380318 Ry
:2PP001: 2P*               -465.713218042 Ry
:2P 001: 2P                -430.315837890 Ry
:3S 001: 3S                -105.707355503 Ry
:3PP001: 3P*                -94.245094936 Ry
:3P 001: 3P                 -87.237290997 Ry
:3DD001: 3D*                -67.163986304 Ry
:3D 001: 3D                 -65.652456212 Ry
:4S 001: 4S                 -20.379339727 Ry
:4PP001: 4P*                -16.085657549 Ry
:4P 001: 4P                 -14.557578303 Ry
:4DD001: 4D*                 -7.489206169 Ry
:4D 001: 4D                  -7.219566151 Ry

------- case.scfm --------
:CINT001 Core Integral Atom   1   45.999520

       DENSITY AT NUCLEUS
        JATOM        VALENCE       SEMI-CORE          CORE           TOTAL
:RTO001:   1      654.776545        0.000000   656825.467253   657480.243798
 :WARNING: K-list has changed
     
       CHARGES OF NEW CHARGE DENSITY
:NTO   : INTERSTITIAL CHARGE =     2.718367
:NPC   : PW Pseudocharge     =     7.751978
:NTO001: CHARGE SPHERE  1    =    56.281075

:NEC01: NUCLEAR AND ELECTRONIC CHARGE     59.00000    58.99944
     
       CHARGES OF OLD CHARGE DENSITY
:OTO   : INTERSTITIAL CHARGE =     2.800936
:OPC   : PW Pseudocharge     =     7.767346
:OTO001: CHARGE SPHERE  1    =    56.199064

:NEC02: NUCLEAR AND ELECTRONIC CHARGE     59.00000    59.00000
     
       CONVERGENCE TEST
:DTO001: DIFFERENCE IN SPHERE  1 =  0.1531230

:DIS  :  CHARGE DISTANCE       ( 0.1531230 for atom    1 spin 1)      0.1531230
 PW Mixed is           47
 
******************************************************
* MULTISECANT MIXING VER9 RELEASE 10.4.0              *
* Standard Mode with controls                        *
* Fixed density scale                                *
* Regularization       1.000E-04                     *
* Trust Upper Limit    5.000E+00                     *
* Max Number of Memory Steps    8                    *
******************************************************
 
:PWTMP   1.3192E+02  1.2500E+02  1.9737E+02
:PLANE:  PW TOTAL      3.3710 DISTAN   2.60E-02  7.72E-01 %
:CHARG:  CLM/ATOM    977.1929 DISTAN   3.62E-01  3.70E-02 %
 
Step History
        DMIX         DMIXT        Red     Pred      Trust     Lambda    MagRel    MagAbs     Beta
  1   3.5000E-02   3.5000E-02 -1.00E+00  1.00E+00 -1.00E+01  1.00E+00  3.50E-02  3.50E-02  1.00E+00
:INFO :  Note, Pratt in use
:TRUST:  Step 3.75E-02  Charge 7.50E-02 (e) CTO  2.50E-01 (e) PW  3.50E-01 (e)
:DIRM :  MEMORY  0/ 8 SCALE   1.000
Performing Pseudo Compensation
Final Pseudo Compensation Rescaling     1.00000E+00
:MIX  :   PRATT  REGULARIZATION:  1.00E-04 GREED: 0.02500                  
     
       CHARGES OF MIXED CHARGE DENSITY
:CTO   : INTERSTITIAL CHARGE =     2.798886
:CPC   : PW Pseudocharge     =     7.767079
:CTO001: CHARGE SPHERE  1    =    56.201114

:NEC03: NUCLEAR AND ELECTRONIC CHARGE     59.00000    59.00000

PW CHANGE     H    K    L      Current       Change    Residue
:PTO001:      0    0    0  5.35328699E-02 -1.174E-05 -4.853E-04
:PTO002:     -1   -1   -1 -1.48123449E-01 -7.421E-05 -4.086E-04
:PTO003:      0    0   -2  8.44339726E-02  7.432E-05  7.366E-04
:PTO004:      0   -2   -2  6.20958279E-02  1.218E-04 -2.875E-04
:PTO005:     -1   -1   -3 -4.71966545E-02 -2.380E-04 -3.781E-04
:PTO006:     -2   -2   -2  1.07219861E-02  8.186E-05  4.227E-04
:PTO007:      0    0   -4 -3.31410744E-04  4.268E-05  2.316E-04
:PTO008:     -1   -3   -3  5.76423147E-03 -9.100E-05  3.773E-04
:PTO009:      0   -2   -4 -7.46142105E-03  7.471E-05 -4.677E-04
:PTO010:     -2   -2   -4 -9.27675027E-03  4.567E-05  1.895E-04
:PTO011:     -3   -3   -3  2.99021726E-03 -1.316E-05 -2.840E-04
:PTO012:     -1   -1   -5  8.69249565E-03 -2.337E-05 -2.073E-04

:ENE  : ********** TOTAL ENERGY IN Ry =       -18472.12968394


------- case.scf0 --------
 Flat Integration
 New Mode for Coulomb Integral
 Consistent 3/8+Simpson combinations
 Extension of core to zero
 LDM version in phi
 Fifth-order quadrature in outwin


            ---------
:ITE025: 25. ITERATION
            ---------

:NATO :    1 INDEPENDENT AND    1 TOTAL ATOMS IN UNITCELL
       SUBSTANCE: blebleble                                                   

       LATTICE                      = F   
:POT  : POTENTIAL OPTION EX_LDA EC_LDA VX_LDA VC_LDA
:LAT  : LATTICE CONSTANTS=  9.24236  9.24236  9.24236    1.571    1.571    1.571
:VOL  : UNIT CELL VOLUME =     197.37341
       MODE OF CALCULATION IS       = RELA
       NON-SPINPOLARIZED CALCULATION
:IFFT  : FFT-parameters:   72   72   72 Factor: 2.00


   CONVERGENCE PARAMETER FOR PSEUDOCHARGE: NCON=  9
   MAXIMAL VALUE OF RMT(JATOM)*ABSK(NKK) : RK  =29.82719


:VKCOUL :  VK-COUL convergence: 0.207E-06
       ATOMNUMBER=  1 Pr         VCOUL-ZERO =  0.41735E+00
:FIT001: LUSE= 13 SIGMA OF V-XC FIT FOR ATOM  1  0.4968536E-04
:FIT001: LUSE= 13 SIGMA OF V-XC FIT FOR ATOM  1  0.4968536E-04
:DEN  : DENSITY INTEGRAL  =         -7081.21472367   (Ry)
       ELS_POTENTIAL_AT Z=0 and Z=0.5:  -2.66603  -2.66603
       ELS_POTENTIAL_AT Y=0 and Y=0.5:   0.00000   0.00000
:VZERO:v0,v0c,v0x  -3.68992  -2.66603  -1.02388 v5,v5c,v5x  -3.68992  -2.66603  -1.02388
:VZERY:v0,v0c,v0x  -0.77309   0.00000  -0.77309 v5,v5c,v5x  -0.77309   0.00000  -0.77309
:VZERX:v0,v0c,v0x  -0.77309   0.00000  -0.77309 v5,v5c,v5x  -0.77309   0.00000  -0.77309

------- case.scf1 --------
:LMAX-WF:   10   Non-Spherical LMAX:   4

          ATOMIC SPHERE DEPENDENT PARAMETERS FOR ATOM  Pr        
:e__0001: OVERALL ENERGY PARAMETER IS    0.5385
          OVERALL BASIS SET ON ATOM IS LAPW
:E0_0001: E( 0)=    0.5385
             APW+lo
:E0_0001: E( 0)=   -1.9193   E(BOTTOM)=   -2.301   E(TOP)=   -1.538  4  5   189
             LOCAL ORBITAL
:E1_0001: E( 1)=    0.9385
             APW+lo
:E1_0001: E( 1)=   -0.5313   E(BOTTOM)=   -1.179   E(TOP)=    0.117  3  4   182
             LOCAL ORBITAL
:E3_0001: E( 3)=    0.7433   E(BOTTOM)=    0.603   E(TOP)=    0.884  0  1   117
             APW+lo
:E2_0001: E( 2)=    0.5385   E(BOTTOM)=    0.394   E(TOP)= -200.000  2 -1    84
             APW+lo

       K=   0.00000   0.00000   0.00000            1
:RKM  : MATRIX SIZE   157LOs:  20  RKM= 8.33  WEIGHT= 1.00  PGR:    
       EIGENVALUES ARE:
:EIG00001:      -1.8942699   -0.4897873   -0.4897873   -0.4897873    0.4952583
:EIG00006:       0.7241983    0.7527631    0.7527631    0.7527631    0.7884667
:EIG00011:       0.7884667    0.7884667    0.8779247    0.8779247    0.8779247
:EIG00016:       1.0968445    1.0968445    1.5171826    1.7846492    1.7846492
:EIG00021:       1.7846492    1.8803898    2.7891194    2.7891194    2.7891194
:EIG00026:       2.9357493    2.9357493    2.9357493    3.0647280    3.0647280
:EIG00031:       3.5704157    3.7271437    3.7271437    3.7271437    4.2245775
:EIG00036:       4.2245775    4.4567600    4.4567600    4.4567600    4.5258498
:EIG00041:       4.5258498    4.5258498    4.5540609    4.5540609    4.5540609
:EIG00046:       4.8927929    4.8927929    4.8927929    4.9969785    4.9969785
 
:EIG00051:       5.0571137    5.2259327    5.2259327    5.2259327    5.2714066
:EIG00056:       5.2714066    5.2714066    5.3354068    5.3778056    5.4165730
:EIG00061:       5.4165730    5.4165730    5.8112986    5.8112986    5.8112986
:EIG00066:       6.3385598    7.1146899    7.1300681    7.1300681    7.6431396
:EIG00071:       7.6431396    7.6431396
       ********************************************************

:KPT   :      NUMBER OF K-POINTS:   165

------- case.scfso --------
   0.0   0.0 angle (M,z), angle (M,x) deg
 
        SPIN-ORBIT EIGENVALUES:
     K=   0.00000   0.00000   0.00000            1
      MATRIX SIZE=  144   WEIGHT= 1.00
     EIGENVALUES ARE:
          -1.8942699   -1.8942699   -0.6403424   -0.6403424   -0.4185659
          -0.4185659   -0.4185659   -0.4185659    0.4952583    0.4952583
           0.7213101    0.7213101    0.7430539    0.7430539    0.7430539
           0.7430539    0.7642849    0.7642849    0.7870226    0.7870226
           0.7944844    0.7944844    0.7944844    0.7944844    0.8739289
           0.8739289    0.8739289    0.8739289    0.8848617    0.8848617
           1.0971945    1.0971945    1.0971945    1.0971945    1.5172484
           1.5172484    1.7804120    1.7804120    1.7866864    1.7866864

           1.7866864    1.7866864    1.8803898    1.8803898    2.7838602
           2.7838602    2.7838602    2.7838602    2.7991207    2.7991207
           2.8547796    2.8547796    2.9773636    2.9773636    2.9773636
           2.9773636    3.0650279    3.0650279    3.0650279    3.0650279
           3.5704157    3.5704157    3.7267442    3.7267442    3.7273542
           3.7273542    3.7273542    3.7273542    4.2245298    4.2245298
           4.2245298    4.2245298    4.4552490    4.4552490    4.4552490
           4.4552490    4.4601211    4.4601211    4.4856358    4.4856358

       ********************************************************

------- case.scf2 --------
:GMA  : POTENTIAL AND CHARGE CUT-OFF  12.00 Ry**.5




:POS001: at.nr.   1 position = 0.00000 0.00000 0.50000  multiplicity =  1

       lmmax  5
       lm=   0 0  4 0  4 4  6 0  6 4
:FER gutzwiller fermi energy   0.75061
:EORB         -0.057199520
:SUM sum of gutz band energies         -3.566588934

:CHA001: total charge inside sphere   1 =    10.279344
:PCS001: partial charges sphere =  1 s,p,d,f,      d-eg,d-t2g 
:QTL001: 2.0386 5.3375 0.7930 2.1094 0.0000 0.0000 0.0000 0.2909 0.5021 0.0000 0.0000 0.0000

:CHA  : total charge inside unit cell =       6.499997

------- case.scfc --------

        1.ATOM      Pr                   14 CORE STATES
:1S 001: 1S               -3066.855308240 Ry
:2S 001: 2S                -492.609138899 Ry
:2PP001: 2P*               -465.707970022 Ry
:2P 001: 2P                -430.310592426 Ry
:3S 001: 3S                -105.702321238 Ry
:3PP001: 3P*                -94.240044609 Ry
:3P 001: 3P                 -87.232266486 Ry
:3DD001: 3D*                -67.158910161 Ry
:3D 001: 3D                 -65.647386951 Ry
:4S 001: 4S                 -20.375485725 Ry
:4PP001: 4P*                -16.081872639 Ry
:4P 001: 4P                 -14.553902167 Ry
:4DD001: 4D*                 -7.485718388 Ry
:4D 001: 4D                  -7.216115170 Ry

------- case.scfm --------
:CINT001 Core Integral Atom   1   45.999519

       DENSITY AT NUCLEUS
        JATOM        VALENCE       SEMI-CORE          CORE           TOTAL
:RTO001:   1      654.555523        0.000000   656825.219465   657479.774988
     
       CHARGES OF NEW CHARGE DENSITY
:NTO   : INTERSTITIAL CHARGE =     2.720514
:NPC   : PW Pseudocharge     =     7.753165
:NTO001: CHARGE SPHERE  1    =    56.278863

:NEC01: NUCLEAR AND ELECTRONIC CHARGE     59.00000    58.99938
     
       CHARGES OF OLD CHARGE DENSITY
:OTO   : INTERSTITIAL CHARGE =     2.798885
:OPC   : PW Pseudocharge     =     7.767080
:OTO001: CHARGE SPHERE  1    =    56.201114

:NEC02: NUCLEAR AND ELECTRONIC CHARGE     59.00000    59.00000
     
       CONVERGENCE TEST
:DTO001: DIFFERENCE IN SPHERE  1 =  0.1440048

:DIS  :  CHARGE DISTANCE       ( 0.1440048 for atom    1 spin 1)      0.1440048
 PW Mixed is           47
 
******************************************************
* MULTISECANT MIXING VER9 RELEASE 10.4.0              *
* Slow Mode, cautious                                *
* Fixed density scale                                *
* Regularization       1.000E-04                     *
* Step Trust Radius    0.75000                       *
* Trust Upper Limit    2.000E+00                     *
* Max Number of Memory Steps   12                    *
******************************************************
 
:PWTMP   1.3192E+02  1.2500E+02  1.9737E+02
:PLANE:  PW TOTAL      3.3724 DISTAN   2.42E-02  7.19E-01 %
:CHARG:  CLM/ATOM    977.1933 DISTAN   3.51E-01  3.59E-02 %
 
Step History
        DMIX         DMIXT        Red     Pred      Trust     Lambda    MagRel    MagAbs     Beta
  1   3.5000E-02   3.5000E-02 -1.00E+00  1.00E+00 -1.00E+01  1.00E+00  3.50E-02  3.50E-02  1.00E+00
  2   2.5000E-02   2.5000E-02 -1.00E+00  1.00E+00 -1.00E+01  1.00E+00  2.50E-02  9.07E-03  1.00E+00
:JACOBIANS    3.360E-02   2.843E-01
  
:TRUST:  Step 3.25E-02  Charge 7.50E-02 (e) CTO  2.50E-01 (e) PW  3.50E-01 (e)
:DIRM :  MEMORY  1/12 SCALE   1.000
:MIX  :   PRATT  REGULARIZATION:  1.00E-04 GREED: 0.03245  Expand 1.30  0.0325                
     
       CHARGES OF MIXED CHARGE DENSITY
:CTO   : INTERSTITIAL CHARGE =     2.753714
:CPC   : PW Pseudocharge     =     7.761268
:CTO001: CHARGE SPHERE  1    =    56.246286

:NEC03: NUCLEAR AND ELECTRONIC CHARGE     59.00000    59.00000

PW CHANGE     H    K    L      Current       Change    Residue
:PTO001:      0    0    0  5.32745643E-02 -2.583E-04 -4.554E-04
:PTO002:     -1   -1   -1 -1.49759491E-01 -1.636E-03 -3.344E-04
:PTO003:      0    0   -2  8.60719607E-02  1.638E-03  6.616E-04
:PTO004:      0   -2   -2  6.47800050E-02  2.684E-03 -4.175E-04
:PTO005:     -1   -1   -3 -5.24410826E-02 -5.244E-03 -1.219E-04
:PTO006:     -2   -2   -2  1.25255507E-02  1.804E-03  3.338E-04
:PTO007:      0    0   -4  6.08869931E-04  9.403E-04  1.874E-04
:PTO008:     -1   -3   -3  3.75934982E-03 -2.005E-03  4.683E-04
:PTO009:      0   -2   -4 -5.81540053E-03  1.646E-03 -5.408E-04
:PTO010:     -2   -2   -4 -8.27059595E-03  1.006E-03  1.462E-04
:PTO011:     -3   -3   -3  2.70024957E-03 -2.900E-04 -2.713E-04
:PTO012:     -1   -1   -5  8.17763829E-03 -5.149E-04 -1.874E-04

:ENE  : ********** TOTAL ENERGY IN Ry =       -18472.12936611


------- case.scf0 --------
 Flat Integration
 New Mode for Coulomb Integral
 Consistent 3/8+Simpson combinations
 Extension of core to zero
 LDM version in phi
 Fifth-order quadrature in outwin


            ---------
:ITE026: 26. ITERATION
            ---------

:NATO :    1 INDEPENDENT AND    1 TOTAL ATOMS IN UNITCELL
       SUBSTANCE: blebleble                                                   

       LATTICE                      = F   
:POT  : POTENTIAL OPTION EX_LDA EC_LDA VX_LDA VC_LDA
:LAT  : LATTICE CONSTANTS=  9.24236  9.24236  9.24236    1.571    1.571    1.571
:VOL  : UNIT CELL VOLUME =     197.37341
       MODE OF CALCULATION IS       = RELA
       NON-SPINPOLARIZED CALCULATION
:IFFT  : FFT-parameters:   72   72   72 Factor: 2.00


   CONVERGENCE PARAMETER FOR PSEUDOCHARGE: NCON=  9
   MAXIMAL VALUE OF RMT(JATOM)*ABSK(NKK) : RK  =29.82719


:VKCOUL :  VK-COUL convergence: 0.113E-06
       ATOMNUMBER=  1 Pr         VCOUL-ZERO =  0.41039E+00
:FIT001: LUSE= 13 SIGMA OF V-XC FIT FOR ATOM  1  0.3039670E-04
:FIT001: LUSE= 13 SIGMA OF V-XC FIT FOR ATOM  1  0.3039670E-04
:DEN  : DENSITY INTEGRAL  =         -7086.08490864   (Ry)
       ELS_POTENTIAL_AT Z=0 and Z=0.5:  -2.62180  -2.62180
       ELS_POTENTIAL_AT Y=0 and Y=0.5:   0.00000   0.00000
:VZERO:v0,v0c,v0x  -3.64923  -2.62180  -1.02742 v5,v5c,v5x  -3.64923  -2.62180  -1.02742
:VZERY:v0,v0c,v0x  -0.76998   0.00000  -0.76998 v5,v5c,v5x  -0.76998   0.00000  -0.76998
:VZERX:v0,v0c,v0x  -0.76998   0.00000  -0.76998 v5,v5c,v5x  -0.76998   0.00000  -0.76998

------- case.scf1 --------
:LMAX-WF:   10   Non-Spherical LMAX:   4

          ATOMIC SPHERE DEPENDENT PARAMETERS FOR ATOM  Pr        
:e__0001: OVERALL ENERGY PARAMETER IS    0.5385
          OVERALL BASIS SET ON ATOM IS LAPW
:E0_0001: E( 0)=    0.5385
             APW+lo
:E0_0001: E( 0)=   -1.8910   E(BOTTOM)=   -2.278   E(TOP)=   -1.504  4  5   197
             LOCAL ORBITAL
:E1_0001: E( 1)=    0.9385
             APW+lo
:E1_0001: E( 1)=   -0.5083   E(BOTTOM)=   -1.164   E(TOP)=    0.147  3  4   189
             LOCAL ORBITAL
:E3_0001: E( 3)=    0.7994   E(BOTTOM)=    0.651   E(TOP)=    0.948  0  1   123
             APW+lo
:E2_0001: E( 2)=    0.5385   E(BOTTOM)=    0.404   E(TOP)= -200.000  2 -1    83
             APW+lo

       K=   0.00000   0.00000   0.00000            1
:RKM  : MATRIX SIZE   157LOs:  20  RKM= 8.33  WEIGHT= 1.00  PGR:    
       EIGENVALUES ARE:
:EIG00001:      -1.8673307   -0.4686127   -0.4686127   -0.4686127    0.4928442
:EIG00006:       0.7720670    0.8060529    0.8060529    0.8060529    0.8472109
:EIG00011:       0.8472109    0.8472109    0.8805981    0.8805981    0.8805981
:EIG00016:       1.1033242    1.1033242    1.5228168    1.7851674    1.7851674
:EIG00021:       1.7851674    1.8710140    2.7957375    2.7957375    2.7957375
:EIG00026:       2.9396688    2.9396688    2.9396688    3.0662564    3.0662564
:EIG00031:       3.5691429    3.7225695    3.7225695    3.7225695    4.2275886
:EIG00036:       4.2275886    4.4574692    4.4574692    4.4574692    4.5233531
:EIG00041:       4.5233531    4.5233531    4.5521053    4.5521053    4.5521053
:EIG00046:       4.8863395    4.8863395    4.8863395    4.9896862    4.9896862
 
:EIG00051:       5.0554236    5.2186157    5.2186157    5.2186157    5.2638525
:EIG00056:       5.2638525    5.2638525    5.3254408    5.3777171    5.4081355
:EIG00061:       5.4081355    5.4081355    5.8018391    5.8018391    5.8018391
:EIG00066:       6.3271371    7.1110156    7.1268196    7.1268196    7.6368930
:EIG00071:       7.6368930    7.6368930
       ********************************************************

:KPT   :      NUMBER OF K-POINTS:   165

------- case.scfso --------
   0.0   0.0 angle (M,z), angle (M,x) deg
 
        SPIN-ORBIT EIGENVALUES:
     K=   0.00000   0.00000   0.00000            1
      MATRIX SIZE=  144   WEIGHT= 1.00
     EIGENVALUES ARE:
          -1.8673307   -1.8673307   -0.6176795   -0.6176795   -0.3981152
          -0.3981152   -0.3981152   -0.3981152    0.4928442    0.4928442
           0.7697585    0.7697585    0.7970749    0.7970749    0.7970749
           0.7970749    0.8171626    0.8171626    0.8452471    0.8452471
           0.8526596    0.8526596    0.8526596    0.8526596    0.8766967
           0.8766967    0.8766967    0.8766967    0.8873963    0.8873963
           1.1036529    1.1036529    1.1036529    1.1036529    1.5228956
           1.5228956    1.7811607    1.7811607    1.7870977    1.7870977

           1.7870977    1.7870977    1.8710140    1.8710140    2.7904980
           2.7904980    2.7904980    2.7904980    2.8056907    2.8056907
           2.8589631    2.8589631    2.9811098    2.9811098    2.9811098
           2.9811098    3.0665570    3.0665570    3.0665570    3.0665570
           3.5691429    3.5691429    3.7221538    3.7221538    3.7227887
           3.7227887    3.7227887    3.7227887    4.2275376    4.2275376
           4.2275376    4.2275376    4.4559444    4.4559444    4.4559444
           4.4559444    4.4608647    4.4608647    4.4827173    4.4827173

       ********************************************************

------- case.scf2 --------
:GMA  : POTENTIAL AND CHARGE CUT-OFF  12.00 Ry**.5




:POS001: at.nr.   1 position = 0.00000 0.00000 0.50000  multiplicity =  1

       lmmax  5
       lm=   0 0  4 0  4 4  6 0  6 4
:FER gutzwiller fermi energy   0.75770
:EORB          0.043866294
:SUM sum of gutz band energies         -3.380016799

:CHA001: total charge inside sphere   1 =    10.188174
:PCS001: partial charges sphere =  1 s,p,d,f,      d-eg,d-t2g 
:QTL001: 2.0374 5.3223 0.8135 2.0140 0.0000 0.0000 0.0000 0.2977 0.5158 0.0000 0.0000 0.0000

:CHA  : total charge inside unit cell =       6.500000

------- case.scfc --------

        1.ATOM      Pr                   14 CORE STATES
:1S 001: 1S               -3066.739286675 Ry
:2S 001: 2S                -492.493661761 Ry
:2PP001: 2P*               -465.592347461 Ry
:2P 001: 2P                -430.195026159 Ry
:3S 001: 3S                -105.591407059 Ry
:3PP001: 3P*                -94.128776690 Ry
:3P 001: 3P                 -87.121567210 Ry
:3DD001: 3D*                -67.047073751 Ry
:3D 001: 3D                 -65.535702163 Ry
:4S 001: 4S                 -20.290580290 Ry
:4PP001: 4P*                -15.998493401 Ry
:4P 001: 4P                 -14.472921845 Ry
:4DD001: 4D*                 -7.408907200 Ry
:4D 001: 4D                  -7.140116397 Ry

------- case.scfm --------
:CINT001 Core Integral Atom   1   45.999497

       DENSITY AT NUCLEUS
        JATOM        VALENCE       SEMI-CORE          CORE           TOTAL
:RTO001:   1      650.007912        0.000000   656819.757403   657469.765314
     
       CHARGES OF NEW CHARGE DENSITY
:NTO   : INTERSTITIAL CHARGE =     2.811828
:NPC   : PW Pseudocharge     =     7.803225
:NTO001: CHARGE SPHERE  1    =    56.187671

:NEC01: NUCLEAR AND ELECTRONIC CHARGE     59.00000    58.99950
     
       CHARGES OF OLD CHARGE DENSITY
:OTO   : INTERSTITIAL CHARGE =     2.753714
:OPC   : PW Pseudocharge     =     7.761268
:OTO001: CHARGE SPHERE  1    =    56.246286

:NEC02: NUCLEAR AND ELECTRONIC CHARGE     59.00000    59.00000
     
       CONVERGENCE TEST
:DTO001: DIFFERENCE IN SPHERE  1 =  0.1569810

:DIS  :  CHARGE DISTANCE       ( 0.1569810 for atom    1 spin 1)      0.1569810
 PW Mixed is           47
 
******************************************************
* MULTISECANT MIXING VER9 RELEASE 10.4.0              *
* Slow Mode, cautious                                *
* Fixed density scale                                *
* Regularization       1.000E-04                     *
* Step Trust Radius    0.75000                       *
* Trust Upper Limit    2.000E+00                     *
* Max Number of Memory Steps   12                    *
******************************************************
 
:PWTMP   1.3192E+02  1.2500E+02  1.9737E+02
:PLANE:  PW TOTAL      3.4030 DISTAN   7.78E-02  2.29E+00 %
:CHARG:  CLM/ATOM    977.2011 DISTAN   2.23E-01  2.28E-02 %
 
Step History
        DMIX         DMIXT        Red     Pred      Trust     Lambda    MagRel    MagAbs     Beta
  1   3.5000E-02   3.5000E-02 -1.00E+00  1.00E+00 -1.00E+01  1.00E+00  3.50E-02  3.50E-02  1.00E+00
  2   2.5000E-02   2.5000E-02  9.68E-01  1.00E+00 -1.00E+01  1.00E+00  2.50E-02  9.07E-03  1.00E+00
  3   3.2453E-02   3.2453E-02 -1.00E+00  1.00E+00 -1.00E+01  1.00E+00  3.25E-02  1.14E-02  1.00E+00
:JACOBIANS    4.346E-02   3.705E-01
  
:NORMS:  1/Froebius, Min, Max, Used   0.6211E+00  0.3638E+00  0.7276E+00  0.6211E+00
:INFO :  Number of Memory Steps    2 Skipping    0
:INFO :  SLambda=    1.6169273617  Max    1.6169273617
:PREDicted Charge, CTotal, PW Trust    4.584E-02   4.584E-02   3.277E-02
:PREDicted DMix, Beta, BLim   4.6558E-01  9.6582E-01  6.0124E-01

Eigenvalues, unscaled except for SY+YY
   #     SY Real        SY Imag          SS             YY         SY+YY Real      SY+YY Imag
   1   1.005963E+00   0.000000E+00   7.714763E-01   1.999964E+00   3.626526E+00   0.000000E+00
   2  -9.992007E-16   0.000000E+00  -5.551115E-17   3.608033E-05   4.330671E-05   0.000000E+00
 
:INFO :  Singular value  3.627E+00 Weight  1.000E+00 Projection  7.551E-03
:INFO :  Singular value  4.331E-05 Weight  4.479E-02 Projection  1.262E+00
:RANK :  ACTIVE   1.04/2  =  52.24 % ; YY RANK   1.03/2  =  51.58 %
 
:DLIM :  Beta Active  9.744E-01
:BLIM :  VZERO Control Off
:TRUST:  Step 3.01E-01  Charge 7.50E-02 (e) CTO  2.50E-01 (e) PW  3.50E-01 (e)
:DIRM :  MEMORY  2/12 SCALE   1.000 RED  0.67 PRED  1.00 NEXT  0.96 BETA  0.97
:TRAVE:  Charge 5.00E-03 (e) CTO  5.00E-03 (e) PW  5.30E-03 (e)
:DIRP :  |MSR1|= 7.510E-03 |PRATT|= 7.783E-02 ANGLE=   3.1 DEGREES
:DIRQ :  |MSR1|= 1.617E-02 |PRATT|= 2.228E-01 ANGLE=   9.4 DEGREES
:DIRT :  |MSR1|= 1.782E-02 |PRATT|= 2.360E-01 ANGLE=  10.4 DEGREES
:MIX  :   MSE1   REGULARIZATION:  2.00E-04 GREED: 0.08113  Newton 1.00  0.0755                
     
       CHARGES OF MIXED CHARGE DENSITY
:CTO   : INTERSTITIAL CHARGE =     2.758716
:CPC   : PW Pseudocharge     =     7.764630
:CTO001: CHARGE SPHERE  1    =    56.241284

:NEC03: NUCLEAR AND ELECTRONIC CHARGE     59.00000    59.00000

PW CHANGE     H    K    L      Current       Change    Residue
:PTO001:      0    0    0  5.33169352E-02  4.237E-05  5.166E-04
:PTO002:     -1   -1   -1 -1.49624611E-01  1.349E-04  1.318E-03
:PTO003:      0    0   -2  8.59587772E-02 -1.132E-04 -1.057E-03
:PTO004:      0   -2   -2  6.44669636E-02 -3.130E-04 -3.295E-03
:PTO005:     -1   -1   -3 -5.18975051E-02  5.436E-04  5.607E-03
:PTO006:     -2   -2   -2  1.23658178E-02 -1.597E-04 -1.584E-03
:PTO007:      0    0   -4  5.27495811E-04 -8.137E-05 -8.071E-04
:PTO008:     -1   -3   -3  3.99744277E-03  2.381E-04  2.515E-03
:PTO009:      0   -2   -4 -6.02469060E-03 -2.093E-04 -2.242E-03
:PTO010:     -2   -2   -4 -8.35314197E-03 -8.255E-05 -8.026E-04
:PTO011:     -3   -3   -3  2.70384265E-03  3.593E-06 -2.118E-05
:PTO012:     -1   -1   -5  8.20870484E-03  3.107E-05  2.754E-04

:ENE  : ********** TOTAL ENERGY IN Ry =       -18472.12706184


------- case.scf0 --------
 Flat Integration
 New Mode for Coulomb Integral
 Consistent 3/8+Simpson combinations
 Extension of core to zero
 LDM version in phi
 Fifth-order quadrature in outwin


            ---------
:ITE027: 27. ITERATION
            ---------

:NATO :    1 INDEPENDENT AND    1 TOTAL ATOMS IN UNITCELL
       SUBSTANCE: blebleble                                                   

       LATTICE                      = F   
:POT  : POTENTIAL OPTION EX_LDA EC_LDA VX_LDA VC_LDA
:LAT  : LATTICE CONSTANTS=  9.24236  9.24236  9.24236    1.571    1.571    1.571
:VOL  : UNIT CELL VOLUME =     197.37341
       MODE OF CALCULATION IS       = RELA
       NON-SPINPOLARIZED CALCULATION
:IFFT  : FFT-parameters:   72   72   72 Factor: 2.00


   CONVERGENCE PARAMETER FOR PSEUDOCHARGE: NCON=  9
   MAXIMAL VALUE OF RMT(JATOM)*ABSK(NKK) : RK  =29.82719


:VKCOUL :  VK-COUL convergence: 0.109E-06
       ATOMNUMBER=  1 Pr         VCOUL-ZERO =  0.41126E+00
:FIT001: LUSE= 13 SIGMA OF V-XC FIT FOR ATOM  1  0.2965293E-04
:FIT001: LUSE= 13 SIGMA OF V-XC FIT FOR ATOM  1  0.2965293E-04
:DEN  : DENSITY INTEGRAL  =         -7085.37817324   (Ry)
       ELS_POTENTIAL_AT Z=0 and Z=0.5:  -2.62662  -2.62662
       ELS_POTENTIAL_AT Y=0 and Y=0.5:   0.00000   0.00000
:VZERO:v0,v0c,v0x  -3.65421  -2.62662  -1.02759 v5,v5c,v5x  -3.65421  -2.62662  -1.02759
:VZERY:v0,v0c,v0x  -0.77036   0.00000  -0.77036 v5,v5c,v5x  -0.77036   0.00000  -0.77036
:VZERX:v0,v0c,v0x  -0.77036   0.00000  -0.77036 v5,v5c,v5x  -0.77036   0.00000  -0.77036

------- case.scf1 --------
:LMAX-WF:   10   Non-Spherical LMAX:   4

          ATOMIC SPHERE DEPENDENT PARAMETERS FOR ATOM  Pr        
:e__0001: OVERALL ENERGY PARAMETER IS    0.5385
          OVERALL BASIS SET ON ATOM IS LAPW
:E0_0001: E( 0)=    0.5385
             APW+lo
:E0_0001: E( 0)=   -1.8946   E(BOTTOM)=   -2.281   E(TOP)=   -1.508  4  5   192
             LOCAL ORBITAL
:E1_0001: E( 1)=    0.9385
             APW+lo
:E1_0001: E( 1)=   -0.5113   E(BOTTOM)=   -1.166   E(TOP)=    0.143  3  4   186
             LOCAL ORBITAL
:E3_0001: E( 3)=    0.7921   E(BOTTOM)=    0.645   E(TOP)=    0.939  0  1   120
             APW+lo
:E2_0001: E( 2)=    0.5385   E(BOTTOM)=    0.403   E(TOP)= -200.000  2 -1    81
             APW+lo

       K=   0.00000   0.00000   0.00000            1
:RKM  : MATRIX SIZE   157LOs:  20  RKM= 8.33  WEIGHT= 1.00  PGR:    
       EIGENVALUES ARE:
:EIG00001:      -1.8707757   -0.4713265   -0.4713265   -0.4713265    0.4930823
:EIG00006:       0.7659063    0.7991480    0.7991480    0.7991480    0.8395710
:EIG00011:       0.8395710    0.8395710    0.8801866    0.8801866    0.8801866
:EIG00016:       1.1024696    1.1024696    1.5218293    1.7849806    1.7849806
:EIG00021:       1.7849806    1.8721831    2.7948219    2.7948219    2.7948219
:EIG00026:       2.9390887    2.9390887    2.9390887    3.0659544    3.0659544
:EIG00031:       3.5692355    3.7230353    3.7230353    3.7230353    4.2271852
:EIG00036:       4.2271852    4.4573073    4.4573073    4.4573073    4.5236025
:EIG00041:       4.5236025    4.5236025    4.5523362    4.5523362    4.5523362
:EIG00046:       4.8870719    4.8870719    4.8870719    4.9905200    4.9905200
 
:EIG00051:       5.0556205    5.2195125    5.2195125    5.2195125    5.2646884
:EIG00056:       5.2646884    5.2646884    5.3266280    5.3776391    5.4091570
:EIG00061:       5.4091570    5.4091570    5.8029676    5.8029676    5.8029676
:EIG00066:       6.3284772    7.1114270    7.1271839    7.1271839    7.6376189
:EIG00071:       7.6376189    7.6376189
       ********************************************************

:KPT   :      NUMBER OF K-POINTS:   165

------- case.scfso --------
   0.0   0.0 angle (M,z), angle (M,x) deg
 
        SPIN-ORBIT EIGENVALUES:
     K=   0.00000   0.00000   0.00000            1
      MATRIX SIZE=  144   WEIGHT= 1.00
     EIGENVALUES ARE:
          -1.8707757   -1.8707757   -0.6205818   -0.6205818   -0.4007373
          -0.4007373   -0.4007373   -0.4007373    0.4930823    0.4930823
           0.7635284    0.7635284    0.7900753    0.7900753    0.7900753
           0.7900753    0.8103153    0.8103153    0.8376683    0.8376683
           0.8450917    0.8450917    0.8450917    0.8450917    0.8762737
           0.8762737    0.8762737    0.8762737    0.8870018    0.8870018
           1.1028007    1.1028007    1.1028007    1.1028007    1.5219063
           1.5219063    1.7809435    1.7809435    1.7869250    1.7869250

           1.7869250    1.7869250    1.8721831    1.8721831    2.7895796
           2.7895796    2.7895796    2.7895796    2.8047817    2.8047817
           2.8583468    2.8583468    2.9805531    2.9805531    2.9805531
           2.9805531    3.0662550    3.0662550    3.0662550    3.0662550
           3.5692355    3.5692355    3.7226216    3.7226216    3.7232534
           3.7232534    3.7232534    3.7232534    4.2271346    4.2271346
           4.2271346    4.2271346    4.4557844    4.4557844    4.4557844
           4.4557844    4.4606982    4.4606982    4.4830207    4.4830207

       ********************************************************

------- case.scf2 --------
:GMA  : POTENTIAL AND CHARGE CUT-OFF  12.00 Ry**.5




:POS001: at.nr.   1 position = 0.00000 0.00000 0.50000  multiplicity =  1

       lmmax  5
       lm=   0 0  4 0  4 4  6 0  6 4
:FER gutzwiller fermi energy   0.75768
:EORB          0.027670134
:SUM sum of gutz band energies         -3.401239258

:CHA001: total charge inside sphere   1 =    10.193880
:PCS001: partial charges sphere =  1 s,p,d,f,      d-eg,d-t2g 
:QTL001: 2.0377 5.3250 0.8156 2.0146 0.0000 0.0000 0.0000 0.2983 0.5173 0.0000 0.0000 0.0000

:CHA  : total charge inside unit cell =       6.499995

------- case.scfc --------

        1.ATOM      Pr                   14 CORE STATES
:1S 001: 1S               -3066.758525852 Ry
:2S 001: 2S                -492.511960942 Ry
:2PP001: 2P*               -465.610853565 Ry
:2P 001: 2P                -430.213454265 Ry
:3S 001: 3S                -105.607533316 Ry
:3PP001: 3P*                -94.145034908 Ry
:3P 001: 3P                 -87.137666268 Ry
:3DD001: 3D*                -67.063545602 Ry
:3D 001: 3D                 -65.552124095 Ry
:4S 001: 4S                 -20.301969526 Ry
:4PP001: 4P*                -16.009666270 Ry
:4P 001: 4P                 -14.483731663 Ry
:4DD001: 4D*                 -7.419127352 Ry
:4D 001: 4D                  -7.150216504 Ry

------- case.scfm --------
:CINT001 Core Integral Atom   1   45.999500

       DENSITY AT NUCLEUS
        JATOM        VALENCE       SEMI-CORE          CORE           TOTAL
:RTO001:   1      650.636843        0.000000   656820.888540   657471.525383
     
       CHARGES OF NEW CHARGE DENSITY
:NTO   : INTERSTITIAL CHARGE =     2.806060
:NPC   : PW Pseudocharge     =     7.800124
:NTO001: CHARGE SPHERE  1    =    56.193380

:NEC01: NUCLEAR AND ELECTRONIC CHARGE     59.00000    58.99944
     
       CHARGES OF OLD CHARGE DENSITY
:OTO   : INTERSTITIAL CHARGE =     2.758716
:OPC   : PW Pseudocharge     =     7.764630
:OTO001: CHARGE SPHERE  1    =    56.241284

:NEC02: NUCLEAR AND ELECTRONIC CHARGE     59.00000    59.00000
     
       CONVERGENCE TEST
:DTO001: DIFFERENCE IN SPHERE  1 =  0.1244803

:DIS  :  CHARGE DISTANCE       ( 0.1244803 for atom    1 spin 1)      0.1244803
 PW Mixed is           47
 
******************************************************
* MULTISECANT MIXING VER9 RELEASE 10.4.0              *
* Standard Mode with controls                        *
* Fixed density scale                                *
* Regularization       1.000E-04                     *
* Trust Upper Limit    5.000E+00                     *
* Max Number of Memory Steps    8                    *
******************************************************
 
:PWTMP   1.3192E+02  1.2500E+02  1.9737E+02
:PLANE:  PW TOTAL      3.4008 DISTAN   6.93E-02  2.04E+00 %
:CHARG:  CLM/ATOM    977.1968 DISTAN   1.95E-01  1.99E-02 %
 
Step History
        DMIX         DMIXT        Red     Pred      Trust     Lambda    MagRel    MagAbs     Beta
  1   3.5000E-02   3.5000E-02 -1.00E+00  1.00E+00 -1.00E+01  1.00E+00  3.50E-02  3.50E-02  1.00E+00
  2   2.5000E-02   2.5000E-02  9.68E-01  1.00E+00 -1.00E+01  1.00E+00  2.50E-02  9.07E-03  1.00E+00
  3   3.2453E-02   3.2453E-02  6.72E-01  1.00E+00 -1.00E+01  1.62E+00  3.25E-02  1.14E-02  1.00E+00
  4   8.1132E-02   8.1132E-02 -1.00E+00  9.65E-01  3.01E-01  1.00E+00  7.55E-02  1.78E-02  9.74E-01
:JACOBIANS    5.391E-02   8.345E-01
  
:NORMS:  1/Froebius, Min, Max, Used   0.6200E+00  0.4492E+00  0.9789E+00  0.6334E+00
:INFO :  Number of Memory Steps    3 Skipping    0
:INFO :  SLambda=    1.4102106557  Max    1.4102106557
:PREDicted Charge, CTotal, PW Trust    2.764E-02   2.764E-02   3.578E-02
:PREDicted DMix, Beta, BLim   6.9379E-01  4.9665E+00  7.6387E-01

Eigenvalues, unscaled except for SY+YY
   #     SY Real        SY Imag          SS             YY         SY+YY Real      SY+YY Imag
   1   1.123060E+00   0.000000E+00   9.015514E-01   2.507192E+00   4.058227E+00   0.000000E+00
   2  -1.054278E-15   0.000000E+00   2.516352E-01   4.927771E-01   3.075143E-05   0.000000E+00
   3   4.234881E-01   0.000000E+00  -4.727121E-17   3.133815E-05   1.122700E+00   0.000000E+00
 
:INFO :  Singular value  4.067E+00 Weight  1.000E+00 Projection  2.301E-02
:INFO :  Singular value  1.120E+00 Weight  1.000E+00 Projection -2.689E-01
:INFO :  Singular value  3.075E-05 Weight  1.482E-02 Projection  1.355E-01
:RANK :  ACTIVE   2.01/3  =  67.16 % ; YY RANK   2.02/3  =  67.18 %
 
:BLIM :  VZERO Control Off
:TRUST:  Step 4.85E-01  Charge 7.50E-02 (e) CTO  2.50E-01 (e) PW  3.50E-01 (e)
:DTRUS:  Lambda    3.307E-01 Increment    7.276E-12 Iterations   105 DMIX    1.700E-01
:INFOA:  Angle SubSpace to MSR1     10.99
:DIRM :  MEMORY  3/8  SCALE   1.000 RED  0.88 PRED  0.96 NEXT  0.48 
:INFO :  Limited by Atoms F by Step T

:TRAVE:  Charge 1.32E-02 (e) CTO  1.32E-02 (e) PW  1.50E-02 (e)
:DIRP :  |MSR1|= 3.299E-02 |PRATT|= 6.931E-02 ANGLE=   0.9 DEGREES
:DIRQ :  |MSR1|= 9.470E-02 |PRATT|= 1.946E-01 ANGLE=   6.9 DEGREES
:DIRT :  |MSR1|= 1.003E-01 |PRATT|= 2.066E-01 ANGLE=   6.6 DEGREES
:MIX  :   MSE1   REGULARIZATION:  2.51E-04 GREED: 0.20283  LMStep 0.61  0.4855 Step           
     
       CHARGES OF MIXED CHARGE DENSITY
:CTO   : INTERSTITIAL CHARGE =     2.780069
:CPC   : PW Pseudocharge     =     7.782384
:CTO001: CHARGE SPHERE  1    =    56.219931

:NEC03: NUCLEAR AND ELECTRONIC CHARGE     59.00000    59.00000

PW CHANGE     H    K    L      Current       Change    Residue
:PTO001:      0    0    0  5.35150714E-02  1.981E-04  4.304E-04
:PTO002:     -1   -1   -1 -1.49087226E-01  5.374E-04  1.165E-03
:PTO003:      0    0   -2  8.55200500E-02 -4.387E-04 -9.386E-04
:PTO004:      0   -2   -2  6.30530747E-02 -1.414E-03 -2.952E-03
:PTO005:     -1   -1   -3 -4.95064698E-02  2.391E-03  5.010E-03
:PTO006:     -2   -2   -2  1.17093987E-02 -6.564E-04 -1.401E-03
:PTO007:      0    0   -4  1.82755623E-04 -3.447E-04 -7.225E-04
:PTO008:     -1   -3   -3  5.10330778E-03  1.106E-03  2.277E-03
:PTO009:      0   -2   -4 -7.02415928E-03 -9.995E-04 -2.040E-03
:PTO010:     -2   -2   -4 -8.70285724E-03 -3.497E-04 -7.267E-04
:PTO011:     -3   -3   -3  2.68656990E-03 -1.727E-05 -2.391E-05
:PTO012:     -1   -1   -5  8.33440941E-03  1.257E-04  2.554E-04

:ENE  : ********** TOTAL ENERGY IN Ry =       -18472.12697532


------- case.scf0 --------
 Flat Integration
 New Mode for Coulomb Integral
 Consistent 3/8+Simpson combinations
 Extension of core to zero
 LDM version in phi
 Fifth-order quadrature in outwin


            ---------
:ITE028: 28. ITERATION
            ---------

:NATO :    1 INDEPENDENT AND    1 TOTAL ATOMS IN UNITCELL
       SUBSTANCE: blebleble                                                   

       LATTICE                      = F   
:POT  : POTENTIAL OPTION EX_LDA EC_LDA VX_LDA VC_LDA
:LAT  : LATTICE CONSTANTS=  9.24236  9.24236  9.24236    1.571    1.571    1.571
:VOL  : UNIT CELL VOLUME =     197.37341
       MODE OF CALCULATION IS       = RELA
       NON-SPINPOLARIZED CALCULATION
:IFFT  : FFT-parameters:   72   72   72 Factor: 2.00


   CONVERGENCE PARAMETER FOR PSEUDOCHARGE: NCON=  9
   MAXIMAL VALUE OF RMT(JATOM)*ABSK(NKK) : RK  =29.82719


:VKCOUL :  VK-COUL convergence: 0.748E-07
       ATOMNUMBER=  1 Pr         VCOUL-ZERO =  0.41516E+00
:FIT001: LUSE= 13 SIGMA OF V-XC FIT FOR ATOM  1  0.2407819E-04
:FIT001: LUSE= 13 SIGMA OF V-XC FIT FOR ATOM  1  0.2407819E-04
:DEN  : DENSITY INTEGRAL  =         -7082.46848573   (Ry)
       ELS_POTENTIAL_AT Z=0 and Z=0.5:  -2.64771  -2.64771
       ELS_POTENTIAL_AT Y=0 and Y=0.5:   0.00000   0.00000
:VZERO:v0,v0c,v0x  -3.67648  -2.64771  -1.02877 v5,v5c,v5x  -3.67648  -2.64771  -1.02877
:VZERY:v0,v0c,v0x  -0.77207   0.00000  -0.77207 v5,v5c,v5x  -0.77207   0.00000  -0.77207
:VZERX:v0,v0c,v0x  -0.77207   0.00000  -0.77207 v5,v5c,v5x  -0.77207   0.00000  -0.77207

------- case.scf1 --------
:LMAX-WF:   10   Non-Spherical LMAX:   4

          ATOMIC SPHERE DEPENDENT PARAMETERS FOR ATOM  Pr        
:e__0001: OVERALL ENERGY PARAMETER IS    0.5385
          OVERALL BASIS SET ON ATOM IS LAPW
:E0_0001: E( 0)=    0.5385
             APW+lo
:E0_0001: E( 0)=   -1.9100   E(BOTTOM)=   -2.293   E(TOP)=   -1.527  4  5   190
             LOCAL ORBITAL
:E1_0001: E( 1)=    0.9385
             APW+lo
:E1_0001: E( 1)=   -0.5238   E(BOTTOM)=   -1.174   E(TOP)=    0.127  3  4   190
             LOCAL ORBITAL
:E3_0001: E( 3)=    0.7610   E(BOTTOM)=    0.618   E(TOP)=    0.904  0  1   120
             APW+lo
:E2_0001: E( 2)=    0.5385   E(BOTTOM)=    0.397   E(TOP)= -200.000  2 -1    81
             APW+lo

       K=   0.00000   0.00000   0.00000            1
:RKM  : MATRIX SIZE   157LOs:  20  RKM= 8.33  WEIGHT= 1.00  PGR:    
       EIGENVALUES ARE:
:EIG00001:      -1.8854086   -0.4828100   -0.4828100   -0.4828100    0.4943125
:EIG00006:       0.7393924    0.7696535    0.7696535    0.7696535    0.8071449
:EIG00011:       0.8071449    0.8071449    0.8785536    0.8785536    0.8785536
:EIG00016:       1.0989679    1.0989679    1.5182405    1.7846501    1.7846501
:EIG00021:       1.7846501    1.8774326    2.7910996    2.7910996    2.7910996
:EIG00026:       2.9368221    2.9368221    2.9368221    3.0647855    3.0647855
:EIG00031:       3.5698313    3.7253452    3.7253452    3.7253452    4.2257307
:EIG00036:       4.2257307    4.4568339    4.4568339    4.4568339    4.5248943
:EIG00041:       4.5248943    4.5248943    4.5535149    4.5535149    4.5535149
:EIG00046:       4.8903555    4.8903555    4.8903555    4.9942500    4.9942500
 
:EIG00051:       5.0566879    5.2236075    5.2236075    5.2236075    5.2684933
:EIG00056:       5.2684933    5.2684933    5.3319379    5.3775045    5.4137418
:EIG00061:       5.4137418    5.4137418    5.8080995    5.8080995    5.8080995
:EIG00066:       6.3345682    7.1133617    7.1289435    7.1289435    7.6409568
:EIG00071:       7.6409568    7.6409568
       ********************************************************

:KPT   :      NUMBER OF K-POINTS:   165

------- case.scfso --------
   0.0   0.0 angle (M,z), angle (M,x) deg
 
        SPIN-ORBIT EIGENVALUES:
     K=   0.00000   0.00000   0.00000            1
      MATRIX SIZE=  144   WEIGHT= 1.00
     EIGENVALUES ARE:
          -1.8854086   -1.8854086   -0.6328758   -0.6328758   -0.4118266
          -0.4118266   -0.4118266   -0.4118266    0.4943125    0.4943125
           0.7367041    0.7367041    0.7601797    0.7601797    0.7601797
           0.7601797    0.7810571    0.7810571    0.8055176    0.8055176
           0.8129737    0.8129737    0.8129737    0.8129737    0.8745911
           0.8745911    0.8745911    0.8745911    0.8854423    0.8854423
           1.0993100    1.0993100    1.0993100    1.0993100    1.5183102
           1.5183102    1.7804884    1.7804884    1.7866522    1.7866522

           1.7866522    1.7866522    1.8774326    1.8774326    2.7858455
           2.7858455    2.7858455    2.7858455    2.8010872    2.8010872
           2.8559275    2.8559275    2.9783855    2.9783855    2.9783856
           2.9783856    3.0650860    3.0650860    3.0650860    3.0650860
           3.5698313    3.5698313    3.7249405    3.7249405    3.7255586
           3.7255586    3.7255586    3.7255586    4.2256819    4.2256819
           4.2256819    4.2256819    4.4553190    4.4553190    4.4553190
           4.4553190    4.4602052    4.4602052    4.4845426    4.4845426

       ********************************************************

------- case.scf2 --------
:GMA  : POTENTIAL AND CHARGE CUT-OFF  12.00 Ry**.5




:POS001: at.nr.   1 position = 0.00000 0.00000 0.50000  multiplicity =  1

       lmmax  5
       lm=   0 0  4 0  4 4  6 0  6 4
:FER gutzwiller fermi energy   0.75496
:EORB         -0.031428657
:SUM sum of gutz band energies         -3.499460809

:CHA001: total charge inside sphere   1 =    10.234780
:PCS001: partial charges sphere =  1 s,p,d,f,      d-eg,d-t2g 
:QTL001: 2.0385 5.3340 0.8107 2.0506 0.0000 0.0000 0.0000 0.2963 0.5144 0.0000 0.0000 0.0000

:CHA  : total charge inside unit cell =       6.499995

------- case.scfc --------

        1.ATOM      Pr                   14 CORE STATES
:1S 001: 1S               -3066.835348654 Ry
:2S 001: 2S                -492.585717097 Ry
:2PP001: 2P*               -465.685278458 Ry
:2P 001: 2P                -430.287626192 Ry
:3S 001: 3S                -105.673899196 Ry
:3PP001: 3P*                -94.211861826 Ry
:3P 001: 3P                 -87.203917421 Ry
:3DD001: 3D*                -67.131113231 Ry
:3D 001: 3D                 -65.619515218 Ry
:4S 001: 4S                 -20.349885905 Ry
:4PP001: 4P*                -16.056689345 Ry
:4P 001: 4P                 -14.529279110 Ry
:4DD001: 4D*                 -7.462234402 Ry
:4D 001: 4D                  -7.192832187 Ry

------- case.scfm --------
:CINT001 Core Integral Atom   1   45.999513

       DENSITY AT NUCLEUS
        JATOM        VALENCE       SEMI-CORE          CORE           TOTAL
:RTO001:   1      653.215385        0.000000   656825.198452   657478.413836
     
       CHARGES OF NEW CHARGE DENSITY
:NTO   : INTERSTITIAL CHARGE =     2.765305
:NPC   : PW Pseudocharge     =     7.777304
:NTO001: CHARGE SPHERE  1    =    56.234292

:NEC01: NUCLEAR AND ELECTRONIC CHARGE     59.00000    58.99960
     
       CHARGES OF OLD CHARGE DENSITY
:OTO   : INTERSTITIAL CHARGE =     2.780069
:OPC   : PW Pseudocharge     =     7.782384
:OTO001: CHARGE SPHERE  1    =    56.219931

:NEC02: NUCLEAR AND ELECTRONIC CHARGE     59.00000    59.00000
     
       CONVERGENCE TEST
:DTO001: DIFFERENCE IN SPHERE  1 =  0.0333650

:DIS  :  CHARGE DISTANCE       ( 0.0333650 for atom    1 spin 1)      0.0333650
 PW Mixed is           47
 
******************************************************
* MULTISECANT MIXING VER9 RELEASE 10.4.0              *
* Standard Mode with controls                        *
* Fixed density scale                                *
* Regularization       1.000E-04                     *
* Trust Upper Limit    5.000E+00                     *
* Max Number of Memory Steps    8                    *
******************************************************
 
:PWTMP   1.3192E+02  1.2500E+02  1.9737E+02
:PLANE:  PW TOTAL      3.3921 DISTAN   3.31E-02  9.77E-01 %
:CHARG:  CLM/ATOM    977.1822 DISTAN   7.16E-02  7.33E-03 %
 
Step History
        DMIX         DMIXT        Red     Pred      Trust     Lambda    MagRel    MagAbs     Beta
  1   3.5000E-02   3.5000E-02 -1.00E+00  1.00E+00 -1.00E+01  1.00E+00  3.50E-02  3.50E-02  1.00E+00
  2   2.5000E-02   2.5000E-02  9.68E-01  1.00E+00 -1.00E+01  1.00E+00  2.50E-02  9.07E-03  1.00E+00
  3   3.2453E-02   3.2453E-02  6.72E-01  1.00E+00 -1.00E+01  1.62E+00  3.25E-02  1.14E-02  1.00E+00
  4   8.1132E-02   8.1132E-02  8.75E-01  9.65E-01  3.01E-01  1.41E+00  7.55E-02  1.78E-02  9.74E-01
  5   2.0283E-01   1.7004E-01 -1.00E+00  4.78E-01  4.85E-01  1.00E+00  4.85E-01  1.00E-01  1.00E+00
:JACOBIANS    6.003E-02   1.163E+00
  
:NORMS:  1/Froebius, Min, Max, Used   0.7798E+00  0.6214E+00  0.1001E+01  0.1001E+01
:INFO :  Number of Memory Steps    4 Skipping    0
:INFO :  SLambda=    1.0530141565  Max    1.0530141565
:PREDicted Charge, CTotal, PW Trust    1.596E-02   1.596E-02   2.299E-02
:PREDicted DMix, Beta, BLim   1.3804E-01  1.1838E+00  1.0995E+00

Eigenvalues, unscaled except for SY+YY
   #     SY Real        SY Imag          SS             YY         SY+YY Real      SY+YY Imag
   1   2.127266E+00   0.000000E+00   2.171040E+00   2.165272E+00   4.382011E+00   0.000000E+00
   2   6.456227E-01   0.000000E+00   2.614081E-01   1.834020E+00   2.537194E+00   0.000000E+00
   3  -1.092499E-15   0.000000E+00   7.380441E-05   7.061206E-04   2.936205E-06   0.000000E+00
   4   1.977025E-04   0.000000E+00  -2.699025E-16   1.611816E-06   8.909730E-04   0.000000E+00
 
:INFO :  Singular value  4.393E+00 Weight  1.000E+00 Projection -3.975E-02
:INFO :  Singular value  2.531E+00 Weight  1.000E+00 Projection  2.003E-02
:INFO :  Singular value  8.918E-04 Weight  9.443E-01 Projection -4.874E-01
:INFO :  Singular value  2.933E-06 Weight  1.835E-04 Projection  6.295E-03
:RANK :  ACTIVE   2.94/4  =  73.61 % ; YY RANK   2.91/4  =  72.85 %
 
:BLIM :  VZERO Control Off
:TRUST:  Step 7.46E-01  Charge 7.50E-02 (e) CTO  2.50E-01 (e) PW  3.50E-01 (e)
:DTRUS:  Lambda    5.819E-02 Increment    3.638E-12 Iterations    99 DMIX    1.337E-01
:INFOA:  Angle SubSpace to MSR1      0.29
:DIRM :  MEMORY  4/8  SCALE   1.000 RED  0.38 PRED  0.48 NEXT  0.56 
:INFO :  Limited by Atoms F by Step T

:TRAVE:  Charge 9.30E-03 (e) CTO  9.30E-03 (e) PW  8.54E-03 (e)
:DIRP :  |MSR1|= 3.609E-03 |PRATT|= 3.314E-02 ANGLE= 122.5 DEGREES
:DIRQ :  |MSR1|= 5.880E-02 |PRATT|= 7.162E-02 ANGLE=  19.7 DEGREES
:DIRT :  |MSR1|= 5.891E-02 |PRATT|= 7.892E-02 ANGLE=  33.0 DEGREES
:MIX  :   MSE1   REGULARIZATION:  2.17E-04 GREED: 0.13377  LMStep 0.98  0.7465 Step           
     
       CHARGES OF MIXED CHARGE DENSITY
:CTO   : INTERSTITIAL CHARGE =     2.774652
:CPC   : PW Pseudocharge     =     7.784579
:CTO001: CHARGE SPHERE  1    =    56.225348

:NEC03: NUCLEAR AND ELECTRONIC CHARGE     59.00000    59.00000

PW CHANGE     H    K    L      Current       Change    Residue
:PTO001:      0    0    0  5.34987493E-02 -1.632E-05 -9.276E-05
:PTO002:     -1   -1   -1 -1.49192086E-01 -1.049E-04  6.115E-04
:PTO003:      0    0   -2  8.56556607E-02  1.356E-04 -4.986E-04
:PTO004:      0   -2   -2  6.30552811E-02  2.206E-06 -1.434E-03
:PTO005:     -1   -1   -3 -4.96408385E-02 -1.344E-04  2.385E-03
:PTO006:     -2   -2   -2  1.18124959E-02  1.031E-04 -6.708E-04
:PTO007:      0    0   -4  2.32577786E-04  4.982E-05 -3.584E-04
:PTO008:     -1   -3   -3  5.12468771E-03  2.138E-05  1.147E-03
:PTO009:      0   -2   -4 -7.07488267E-03 -5.072E-05 -1.029E-03
:PTO010:     -2   -2   -4 -8.64862553E-03  5.423E-05 -4.063E-04
:PTO011:     -3   -3   -3  2.63139499E-03 -5.517E-05  9.627E-06
:PTO012:     -1   -1   -5  8.29214818E-03 -4.226E-05  1.693E-04

:ENE  : ********** TOTAL ENERGY IN Ry =       -18472.12750201


------- case.scf0 --------
 Flat Integration
 New Mode for Coulomb Integral
 Consistent 3/8+Simpson combinations
 Extension of core to zero
 LDM version in phi
 Fifth-order quadrature in outwin


            ---------
:ITE029: 29. ITERATION
            ---------

:NATO :    1 INDEPENDENT AND    1 TOTAL ATOMS IN UNITCELL
       SUBSTANCE: blebleble                                                   

       LATTICE                      = F   
:POT  : POTENTIAL OPTION EX_LDA EC_LDA VX_LDA VC_LDA
:LAT  : LATTICE CONSTANTS=  9.24236  9.24236  9.24236    1.571    1.571    1.571
:VOL  : UNIT CELL VOLUME =     197.37341
       MODE OF CALCULATION IS       = RELA
       NON-SPINPOLARIZED CALCULATION
:IFFT  : FFT-parameters:   72   72   72 Factor: 2.00


   CONVERGENCE PARAMETER FOR PSEUDOCHARGE: NCON=  9
   MAXIMAL VALUE OF RMT(JATOM)*ABSK(NKK) : RK  =29.82719


:VKCOUL :  VK-COUL convergence: 0.619E-07
       ATOMNUMBER=  1 Pr         VCOUL-ZERO =  0.41492E+00
:FIT001: LUSE= 13 SIGMA OF V-XC FIT FOR ATOM  1  0.2059046E-04
:FIT001: LUSE= 13 SIGMA OF V-XC FIT FOR ATOM  1  0.2059046E-04
:DEN  : DENSITY INTEGRAL  =         -7083.03934238   (Ry)
       ELS_POTENTIAL_AT Z=0 and Z=0.5:  -2.64442  -2.64442
       ELS_POTENTIAL_AT Y=0 and Y=0.5:   0.00000   0.00000
:VZERO:v0,v0c,v0x  -3.67397  -2.64442  -1.02955 v5,v5c,v5x  -3.67397  -2.64442  -1.02955
:VZERY:v0,v0c,v0x  -0.77182   0.00000  -0.77182 v5,v5c,v5x  -0.77182   0.00000  -0.77182
:VZERX:v0,v0c,v0x  -0.77182   0.00000  -0.77182 v5,v5c,v5x  -0.77182   0.00000  -0.77182

------- case.scf1 --------
:LMAX-WF:   10   Non-Spherical LMAX:   4

          ATOMIC SPHERE DEPENDENT PARAMETERS FOR ATOM  Pr        
:e__0001: OVERALL ENERGY PARAMETER IS    0.5385
          OVERALL BASIS SET ON ATOM IS LAPW
:E0_0001: E( 0)=    0.5385
             APW+lo
:E0_0001: E( 0)=   -1.9064   E(BOTTOM)=   -2.290   E(TOP)=   -1.522  4  5   191
             LOCAL ORBITAL
:E1_0001: E( 1)=    0.9385
             APW+lo
:E1_0001: E( 1)=   -0.5208   E(BOTTOM)=   -1.172   E(TOP)=    0.130  3  4   186
             LOCAL ORBITAL
:E3_0001: E( 3)=    0.7677   E(BOTTOM)=    0.624   E(TOP)=    0.912  0  1   119
             APW+lo
:E2_0001: E( 2)=    0.5385   E(BOTTOM)=    0.399   E(TOP)= -200.000  2 -1    79
             APW+lo

       K=   0.00000   0.00000   0.00000            1
:RKM  : MATRIX SIZE   157LOs:  20  RKM= 8.33  WEIGHT= 1.00  PGR:    
       EIGENVALUES ARE:
:EIG00001:      -1.8819566   -0.4799882   -0.4799882   -0.4799882    0.4945301
:EIG00006:       0.7451707    0.7760194    0.7760194    0.7760194    0.8141327
:EIG00011:       0.8141327    0.8141327    0.8793081    0.8793081    0.8793081
:EIG00016:       1.1001748    1.1001748    1.5192967    1.7852062    1.7852062
:EIG00021:       1.7852062    1.8769253    2.7923302    2.7923302    2.7923302
:EIG00026:       2.9377412    2.9377412    2.9377412    3.0653955    3.0653955
:EIG00031:       3.5701843    3.7253121    3.7253121    3.7253121    4.2266392
:EIG00036:       4.2266392    4.4574374    4.4574374    4.4574374    4.5251089
:EIG00041:       4.5251089    4.5251089    4.5538193    4.5538193    4.5538193
:EIG00046:       4.8900980    4.8900980    4.8900980    4.9939022    4.9939022
 
:EIG00051:       5.0570375    5.2233249    5.2233249    5.2233249    5.2680969
:EIG00056:       5.2680969    5.2680969    5.3313315    5.3779687    5.4133135
:EIG00061:       5.4133135    5.4133135    5.8075482    5.8075482    5.8075482
:EIG00066:       6.3337921    7.1134571    7.1291127    7.1291127    7.6407639
:EIG00071:       7.6407639    7.6407639
       ********************************************************

:KPT   :      NUMBER OF K-POINTS:   165

------- case.scfso --------
   0.0   0.0 angle (M,z), angle (M,x) deg
 
        SPIN-ORBIT EIGENVALUES:
     K=   0.00000   0.00000   0.00000            1
      MATRIX SIZE=  144   WEIGHT= 1.00
     EIGENVALUES ARE:
          -1.8819566   -1.8819566   -0.6298910   -0.6298910   -0.4090841
          -0.4090841   -0.4090841   -0.4090841    0.4945301    0.4945301
           0.7425487    0.7425487    0.7666285    0.7666285    0.7666285
           0.7666285    0.7873782    0.7873782    0.8124457    0.8124457
           0.8198961    0.8198961    0.8198961    0.8198961    0.8753563
           0.8753563    0.8753563    0.8753563    0.8861812    0.8861812
           1.1005144    1.1005144    1.1005144    1.1005144    1.5193679
           1.5193679    1.7810699    1.7810699    1.7871964    1.7871964

           1.7871964    1.7871964    1.8769253    1.8769253    2.7870786
           2.7870786    2.7870786    2.7870786    2.8023118    2.8023118
           2.8568753    2.8568753    2.9792859    2.9792859    2.9792859
           2.9792859    3.0656961    3.0656961    3.0656961    3.0656961
           3.5701843    3.5701843    3.7249055    3.7249055    3.7255264
           3.7255264    3.7255264    3.7255264    4.2265900    4.2265900
           4.2265900    4.2265900    4.4559213    4.4559213    4.4559213
           4.4559213    4.4608120    4.4608120    4.4847117    4.4847117

       ********************************************************

------- case.scf2 --------
:GMA  : POTENTIAL AND CHARGE CUT-OFF  12.00 Ry**.5




:POS001: at.nr.   1 position = 0.00000 0.00000 0.50000  multiplicity =  1

       lmmax  5
       lm=   0 0  4 0  4 4  6 0  6 4
:FER gutzwiller fermi energy   0.75633
:EORB         -0.020485377
:SUM sum of gutz band energies         -3.472221082

:CHA001: total charge inside sphere   1 =    10.224193
:PCS001: partial charges sphere =  1 s,p,d,f,      d-eg,d-t2g 
:QTL001: 2.0384 5.3325 0.8135 2.0389 0.0000 0.0000 0.0000 0.2971 0.5163 0.0000 0.0000 0.0000

:CHA  : total charge inside unit cell =       6.499997

------- case.scfc --------

        1.ATOM      Pr                   14 CORE STATES
:1S 001: 1S               -3066.821812244 Ry
:2S 001: 2S                -492.572257568 Ry
:2PP001: 2P*               -465.671794239 Ry
:2P 001: 2P                -430.274151083 Ry
:3S 001: 3S                -105.661045043 Ry
:3PP001: 3P*                -94.198963651 Ry
:3P 001: 3P                 -87.191087483 Ry
:3DD001: 3D*                -67.118141765 Ry
:3D 001: 3D                 -65.606562506 Ry
:4S 001: 4S                 -20.340016300 Ry
:4PP001: 4P*                -16.046990968 Ry
:4P 001: 4P                 -14.519851467 Ry
:4DD001: 4D*                 -7.453271369 Ry
:4D 001: 4D                  -7.183960352 Ry

------- case.scfm --------
:CINT001 Core Integral Atom   1   45.999511

       DENSITY AT NUCLEUS
        JATOM        VALENCE       SEMI-CORE          CORE           TOTAL
:RTO001:   1      652.723206        0.000000   656824.567935   657477.291141
     
       CHARGES OF NEW CHARGE DENSITY
:NTO   : INTERSTITIAL CHARGE =     2.775694
:NPC   : PW Pseudocharge     =     7.783269
:NTO001: CHARGE SPHERE  1    =    56.223704

:NEC01: NUCLEAR AND ELECTRONIC CHARGE     59.00000    58.99940
     
       CHARGES OF OLD CHARGE DENSITY
:OTO   : INTERSTITIAL CHARGE =     2.774652
:OPC   : PW Pseudocharge     =     7.784579
:OTO001: CHARGE SPHERE  1    =    56.225348

:NEC02: NUCLEAR AND ELECTRONIC CHARGE     59.00000    59.00000
     
       CONVERGENCE TEST
:DTO001: DIFFERENCE IN SPHERE  1 =  0.0060261

:DIS  :  CHARGE DISTANCE       ( 0.0060261 for atom    1 spin 1)      0.0060261
 PW Mixed is           47
 
******************************************************
* MULTISECANT MIXING VER9 RELEASE 10.4.0              *
* Standard Mode with controls                        *
* Fixed density scale                                *
* Regularization       1.000E-04                     *
* Trust Upper Limit    5.000E+00                     *
* Max Number of Memory Steps    8                    *
******************************************************
 
:PWTMP   1.3192E+02  1.2500E+02  1.9737E+02
:PLANE:  PW TOTAL      3.3937 DISTAN   3.54E-02  1.04E+00 %
:CHARG:  CLM/ATOM    977.1831 DISTAN   9.90E-03  1.01E-03 %
 
Step History
        DMIX         DMIXT        Red     Pred      Trust     Lambda    MagRel    MagAbs     Beta
  1   3.5000E-02   3.5000E-02 -1.00E+00  1.00E+00 -1.00E+01  1.00E+00  3.50E-02  3.50E-02  1.00E+00
  2   2.5000E-02   2.5000E-02  9.68E-01  1.00E+00 -1.00E+01  1.00E+00  2.50E-02  9.07E-03  1.00E+00
  3   3.2453E-02   3.2453E-02  6.72E-01  1.00E+00 -1.00E+01  1.62E+00  3.25E-02  1.14E-02  1.00E+00
  4   8.1132E-02   8.1132E-02  8.75E-01  9.65E-01  3.01E-01  1.41E+00  7.55E-02  1.78E-02  9.74E-01
  5   2.0283E-01   1.7004E-01  3.82E-01  4.78E-01  4.85E-01  1.05E+00  4.85E-01  1.00E-01  1.00E+00
  6   1.3377E-01   1.3370E-01 -1.00E+00  5.59E-01  7.46E-01  1.00E+00  7.46E-01  5.89E-02  1.00E+00
:JACOBIANS    3.916E-01   1.371E+00
  
:NORMS:  1/Froebius, Min, Max, Used   0.8665E+00  0.5034E+00  0.1014E+01  0.1014E+01
:INFO :  Number of Memory Steps    5 Skipping    0
:INFO :  SLambda=    0.9635789733  Max    0.9635789733
:PREDicted Charge, CTotal, PW Trust    2.729E-03   2.729E-03   1.053E-04
:PREDicted DMix, Beta, BLim   6.7171E-01  1.2214E+00  9.6276E-01

Eigenvalues, unscaled except for SY+YY
   #     SY Real        SY Imag          SS             YY         SY+YY Real      SY+YY Imag
   1   3.449526E+00   0.000000E+00   3.531061E+00   3.433617E+00   6.756739E+00   0.000000E+00
   2   5.347603E-01   0.000000E+00   2.148103E-01   1.551779E+00   2.068209E+00   0.000000E+00
   3   1.089480E-02   0.000000E+00   8.060865E-03   1.423634E-02   2.432476E-02   0.000000E+00
   4   3.942316E-16   0.000000E+00   2.405421E-05   3.667595E-04   1.485249E-07   0.000000E+00
   5   9.852619E-05   0.000000E+00   4.360464E-17   1.471494E-07   4.944389E-04   0.000000E+00
 
:INFO :  Singular value  6.761E+00 Weight  1.000E+00 Projection -3.728E-03
:INFO :  Singular value  2.067E+00 Weight  1.000E+00 Projection -9.304E-03
:INFO :  Singular value  2.432E-02 Weight  9.998E-01 Projection -2.643E-01
:INFO :  Singular value  4.946E-04 Weight  6.748E-01 Projection  7.235E-01
:INFO :  Singular value  1.485E-07 Weight  1.869E-07 Projection  1.942E-07
:RANK :  ACTIVE   3.67/5  =  73.49 % ; YY RANK   3.53/5  =  70.65 %
 
:BLIM :  VZERO Control Off
:TRUST:  Step 9.95E-01  Charge 7.50E-02 (e) CTO  2.50E-01 (e) PW  3.50E-01 (e)
:DIRM :  MEMORY  5/8  SCALE   1.000 RED  0.47 PRED  0.56 NEXT  0.20 
:TRAVE:  Charge 5.60E-03 (e) CTO  5.60E-03 (e) PW  5.42E-03 (e)
:DIRP :  |MSR1|= 3.125E-02 |PRATT|= 3.538E-02 ANGLE=   1.1 DEGREES
:DIRQ :  |MSR1|= 1.416E-02 |PRATT|= 9.903E-03 ANGLE=   5.1 DEGREES
:DIRT :  |MSR1|= 3.431E-02 |PRATT|= 3.674E-02 ANGLE=   9.0 DEGREES
:MIX  :   MSD1   REGULARIZATION:  3.43E-04 GREED: 0.33444  Newton 1.00  0.9337                
     
       CHARGES OF MIXED CHARGE DENSITY
:CTO   : INTERSTITIAL CHARGE =     2.776563
:CPC   : PW Pseudocharge     =     7.786317
:CTO001: CHARGE SPHERE  1    =    56.223437

:NEC03: NUCLEAR AND ELECTRONIC CHARGE     59.00000    59.00000

PW CHANGE     H    K    L      Current       Change    Residue
:PTO001:      0    0    0  5.35172359E-02  1.849E-05  1.024E-05
:PTO002:     -1   -1   -1 -1.48598810E-01  5.933E-04  6.977E-04
:PTO003:      0    0   -2  8.51077109E-02 -5.479E-04 -6.348E-04
:PTO004:      0   -2   -2  6.17739785E-02 -1.281E-03 -1.448E-03
:PTO005:     -1   -1   -3 -4.73651286E-02  2.276E-03  2.567E-03
:PTO006:     -2   -2   -2  1.11291184E-02 -6.834E-04 -7.806E-04
:PTO007:      0    0   -4 -1.36213501E-04 -3.688E-04 -4.146E-04
:PTO008:     -1   -3   -3  6.14553859E-03  1.021E-03  1.132E-03
:PTO009:      0   -2   -4 -7.97383929E-03 -8.990E-04 -9.898E-04
:PTO010:     -2   -2   -4 -9.05596560E-03 -4.073E-04 -4.548E-04
:PTO011:     -3   -3   -3  2.68049092E-03  4.910E-05  5.940E-05
:PTO012:     -1   -1   -5  8.48083422E-03  1.887E-04  2.081E-04

:ENE  : ********** TOTAL ENERGY IN Ry =       -18472.12695868


------- case.scf0 --------
 Flat Integration
 New Mode for Coulomb Integral
 Consistent 3/8+Simpson combinations
 Extension of core to zero
 LDM version in phi
 Fifth-order quadrature in outwin


            ---------
:ITE030: 30. ITERATION
            ---------

:NATO :    1 INDEPENDENT AND    1 TOTAL ATOMS IN UNITCELL
       SUBSTANCE: blebleble                                                   

       LATTICE                      = F   
:POT  : POTENTIAL OPTION EX_LDA EC_LDA VX_LDA VC_LDA
:LAT  : LATTICE CONSTANTS=  9.24236  9.24236  9.24236    1.571    1.571    1.571
:VOL  : UNIT CELL VOLUME =     197.37341
       MODE OF CALCULATION IS       = RELA
       NON-SPINPOLARIZED CALCULATION
:IFFT  : FFT-parameters:   72   72   72 Factor: 2.00


   CONVERGENCE PARAMETER FOR PSEUDOCHARGE: NCON=  9
   MAXIMAL VALUE OF RMT(JATOM)*ABSK(NKK) : RK  =29.82719


:VKCOUL :  VK-COUL convergence: 0.616E-07
       ATOMNUMBER=  1 Pr         VCOUL-ZERO =  0.41718E+00
:FIT001: LUSE= 13 SIGMA OF V-XC FIT FOR ATOM  1  0.2042645E-04
:FIT001: LUSE= 13 SIGMA OF V-XC FIT FOR ATOM  1  0.2042645E-04
:DEN  : DENSITY INTEGRAL  =         -7083.12005404   (Ry)
       ELS_POTENTIAL_AT Z=0 and Z=0.5:  -2.65443  -2.65443
       ELS_POTENTIAL_AT Y=0 and Y=0.5:   0.00000   0.00000
:VZERO:v0,v0c,v0x  -3.68316  -2.65443  -1.02873 v5,v5c,v5x  -3.68316  -2.65443  -1.02873
:VZERY:v0,v0c,v0x  -0.77228   0.00000  -0.77228 v5,v5c,v5x  -0.77228   0.00000  -0.77228
:VZERX:v0,v0c,v0x  -0.77228   0.00000  -0.77228 v5,v5c,v5x  -0.77228   0.00000  -0.77228

------- case.scf1 --------
:LMAX-WF:   10   Non-Spherical LMAX:   4

          ATOMIC SPHERE DEPENDENT PARAMETERS FOR ATOM  Pr        
:e__0001: OVERALL ENERGY PARAMETER IS    0.5385
          OVERALL BASIS SET ON ATOM IS LAPW
:E0_0001: E( 0)=    0.5385
             APW+lo
:E0_0001: E( 0)=   -1.9054   E(BOTTOM)=   -2.289   E(TOP)=   -1.522  4  5   188
             LOCAL ORBITAL
:E1_0001: E( 1)=    0.9385
             APW+lo
:E1_0001: E( 1)=   -0.5195   E(BOTTOM)=   -1.170   E(TOP)=    0.131  3  4   188
             LOCAL ORBITAL
:E3_0001: E( 3)=    0.7681   E(BOTTOM)=    0.624   E(TOP)=    0.912  0  1   118
             APW+lo
:E2_0001: E( 2)=    0.5385   E(BOTTOM)=    0.401   E(TOP)= -200.000  2 -1    78
             APW+lo

       K=   0.00000   0.00000   0.00000            1
:RKM  : MATRIX SIZE   157LOs:  20  RKM= 8.33  WEIGHT= 1.00  PGR:    
       EIGENVALUES ARE:
:EIG00001:      -1.8808875   -0.4787211   -0.4787211   -0.4787211    0.4966069
:EIG00006:       0.7457693    0.7764527    0.7764527    0.7764527    0.8144336
:EIG00011:       0.8144336    0.8144336    0.8812058    0.8812058    0.8812058
:EIG00016:       1.1019440    1.1019440    1.5212115    1.7872317    1.7872317
:EIG00021:       1.7872317    1.8792279    2.7942096    2.7942096    2.7942096
:EIG00026:       2.9396462    2.9396462    2.9396462    3.0673810    3.0673810
:EIG00031:       3.5722501    3.7274855    3.7274855    3.7274855    4.2287331
:EIG00036:       4.2287331    4.4595792    4.4595792    4.4595792    4.5272006
:EIG00041:       4.5272006    4.5272006    4.5559183    4.5559183    4.5559183
:EIG00046:       4.8923114    4.8923114    4.8923114    4.9961447    4.9961447
 
:EIG00051:       5.0591423    5.2255861    5.2255861    5.2255861    5.2703374
:EIG00056:       5.2703374    5.2703374    5.3336806    5.3800125    5.4156046
:EIG00061:       5.4156046    5.4156046    5.8098558    5.8098558    5.8098558
:EIG00066:       6.3361891    7.1156597    7.1313598    7.1313598    7.6430068
:EIG00071:       7.6430068    7.6430068
       ********************************************************

:KPT   :      NUMBER OF K-POINTS:   165

------- case.scfso --------
   0.0   0.0 angle (M,z), angle (M,x) deg
 
        SPIN-ORBIT EIGENVALUES:
     K=   0.00000   0.00000   0.00000            1
      MATRIX SIZE=  144   WEIGHT= 1.00
     EIGENVALUES ARE:
          -1.8808875   -1.8808875   -0.6286750   -0.6286750   -0.4077917
          -0.4077917   -0.4077917   -0.4077917    0.4966069    0.4966069
           0.7431321    0.7431321    0.7670451    0.7670451    0.7670451
           0.7670451    0.7878207    0.7878207    0.8127612    0.8127612
           0.8202100    0.8202100    0.8202100    0.8202100    0.8772511
           0.8772511    0.8772511    0.8772511    0.8880832    0.8880832
           1.1022843    1.1022843    1.1022843    1.1022843    1.5212822
           1.5212822    1.7830883    1.7830883    1.7892252    1.7892252

           1.7892252    1.7892252    1.8792279    1.8792279    2.7889597
           2.7889597    2.7889597    2.7889597    2.8041885    2.8041885
           2.8587765    2.8587765    2.9811941    2.9811941    2.9811941
           2.9811941    3.0676814    3.0676814    3.0676814    3.0676814
           3.5722501    3.5722501    3.7270794    3.7270794    3.7276995
           3.7276995    3.7276995    3.7276995    4.2286839    4.2286839
           4.2286839    4.2286839    4.4580641    4.4580641    4.4580641
           4.4580641    4.4629512    4.4629512    4.4868208    4.4868208

       ********************************************************

------- case.scf2 --------
:GMA  : POTENTIAL AND CHARGE CUT-OFF  12.00 Ry**.5




:POS001: at.nr.   1 position = 0.00000 0.00000 0.50000  multiplicity =  1

       lmmax  5
       lm=   0 0  4 0  4 4  6 0  6 4
:FER gutzwiller fermi energy   0.75841
:EORB         -0.024446296
:SUM sum of gutz band energies         -3.451700586

:CHA001: total charge inside sphere   1 =    10.225260
:PCS001: partial charges sphere =  1 s,p,d,f,      d-eg,d-t2g 
:QTL001: 2.0385 5.3332 0.8144 2.0382 0.0000 0.0000 0.0000 0.2974 0.5170 0.0000 0.0000 0.0000

:CHA  : total charge inside unit cell =       6.499999

------- case.scfc --------

        1.ATOM      Pr                   14 CORE STATES
:1S 001: 1S               -3066.817222303 Ry
:2S 001: 2S                -492.568843258 Ry
:2PP001: 2P*               -465.668118959 Ry
:2P 001: 2P                -430.270573343 Ry
:3S 001: 3S                -105.659776644 Ry
:3PP001: 3P*                -94.197582130 Ry
:3P 001: 3P                 -87.189813006 Ry
:3DD001: 3D*                -67.116572552 Ry
:3D 001: 3D                 -65.605032692 Ry
:4S 001: 4S                 -20.340023826 Ry
:4PP001: 4P*                -16.046983870 Ry
:4P 001: 4P                 -14.519855153 Ry
:4DD001: 4D*                 -7.453226942 Ry
:4D 001: 4D                  -7.183914739 Ry

------- case.scfm --------
:CINT001 Core Integral Atom   1   45.999511

       DENSITY AT NUCLEUS
        JATOM        VALENCE       SEMI-CORE          CORE           TOTAL
:RTO001:   1      652.888514        0.000000   656824.112815   657477.001328
     
       CHARGES OF NEW CHARGE DENSITY
:NTO   : INTERSTITIAL CHARGE =     2.774818
:NPC   : PW Pseudocharge     =     7.783529
:NTO001: CHARGE SPHERE  1    =    56.224771

:NEC01: NUCLEAR AND ELECTRONIC CHARGE     59.00000    58.99959
     
       CHARGES OF OLD CHARGE DENSITY
:OTO   : INTERSTITIAL CHARGE =     2.776563
:OPC   : PW Pseudocharge     =     7.786317
:OTO001: CHARGE SPHERE  1    =    56.223437

:NEC02: NUCLEAR AND ELECTRONIC CHARGE     59.00000    59.00000
     
       CONVERGENCE TEST
:DTO001: DIFFERENCE IN SPHERE  1 =  0.0041771

:DIS  :  CHARGE DISTANCE       ( 0.0041771 for atom    1 spin 1)      0.0041771
 PW Mixed is           47
 
******************************************************
* MULTISECANT MIXING VER9 RELEASE 10.4.0              *
* Standard Mode with controls                        *
* Fixed density scale                                *
* Regularization       1.000E-04                     *
* Trust Upper Limit    5.000E+00                     *
* Max Number of Memory Steps    8                    *
******************************************************
 
:PWTMP   1.3192E+02  1.2500E+02  1.9737E+02
:PLANE:  PW TOTAL      3.3801 DISTAN   4.03E-03  1.19E-01 %
:CHARG:  CLM/ATOM    977.1873 DISTAN   5.08E-03  5.20E-04 %
 
Step History
        DMIX         DMIXT        Red     Pred      Trust     Lambda    MagRel    MagAbs     Beta
  1   3.5000E-02   3.5000E-02 -1.00E+00  1.00E+00 -1.00E+01  1.00E+00  3.50E-02  3.50E-02  1.00E+00
  2   2.5000E-02   2.5000E-02  9.68E-01  1.00E+00 -1.00E+01  1.00E+00  2.50E-02  9.07E-03  1.00E+00
  3   3.2453E-02   3.2453E-02  6.72E-01  1.00E+00 -1.00E+01  1.62E+00  3.25E-02  1.14E-02  1.00E+00
  4   8.1132E-02   8.1132E-02  8.75E-01  9.65E-01  3.01E-01  1.41E+00  7.55E-02  1.78E-02  9.74E-01
  5   2.0283E-01   1.7004E-01  3.82E-01  4.78E-01  4.85E-01  1.05E+00  4.85E-01  1.00E-01  1.00E+00
  6   1.3377E-01   1.3370E-01  4.66E-01  5.59E-01  7.46E-01  9.64E-01  7.46E-01  5.89E-02  1.00E+00
  7   3.3444E-01   3.3444E-01 -1.00E+00  2.01E-01  9.95E-01  1.00E+00  9.34E-01  3.43E-02  1.00E+00
:JACOBIANS    6.977E-01   1.495E+00
  
:NORMS:  1/Froebius, Min, Max, Used   0.9087E+00  0.4884E+00  0.1023E+01  0.1023E+01
:INFO :  Number of Memory Steps    6 Skipping    0
:INFO :  SLambda=    0.8967915882  Max    0.8967915882
:PREDicted Charge, CTotal, PW Trust    2.727E-03   2.727E-03   3.263E-03
:PREDicted DMix, Beta, BLim   3.7616E-01  1.0943E+00  1.0163E+00

Eigenvalues, unscaled except for SY+YY
   #     SY Real        SY Imag          SS             YY         SY+YY Real      SY+YY Imag
   1   3.877461E+00   0.000000E+00   3.980276E+00   3.800203E+00   7.278389E+00   0.000000E+00
   2   8.843254E-01   0.000000E+00   8.492418E-01   1.412309E+00   2.033458E+00   0.000000E+00
   3   3.858198E-01   0.000000E+00   1.250642E-01   7.852772E-01   1.302264E+00   0.000000E+00
   4   7.275973E-04   0.000000E+00   2.428100E-04   2.202386E-03   2.862850E-03   0.000000E+00
   5   4.108337E-16   0.000000E+00   5.250658E-07   8.019823E-06   1.263003E-07   0.000000E+00
   6   1.923667E-06   0.000000E+00   1.707086E-17   1.223884E-07   9.836884E-06   0.000000E+00
 
:INFO :  Singular value  7.280E+00 Weight  1.000E+00 Projection -7.416E-04
:INFO :  Singular value  2.036E+00 Weight  1.000E+00 Projection -2.508E-03
:INFO :  Singular value  1.300E+00 Weight  1.000E+00 Projection -1.840E-03
:INFO :  Singular value  2.865E-03 Weight  9.827E-01 Projection -1.169E-01
:INFO :  Singular value  9.835E-06 Weight  6.694E-04 Projection  9.548E-05
:INFO :  Singular value  1.262E-07 Weight  1.104E-07 Projection  2.421E-07
:RANK :  ACTIVE   3.98/6  =  66.39 % ; YY RANK   3.97/6  =  66.19 %
 
:BLIM :  VZERO Control Off
:TRUST:  Step 1.38E+00  Charge 6.00E-02 (e) CTO  2.00E-01 (e) PW  2.80E-01 (e)
:DIRM :  MEMORY  6/8  SCALE   1.000 RED  0.18 PRED  0.20 NEXT  0.18 
:TRAVE:  Charge 3.05E-03 (e) CTO  3.05E-03 (e) PW  2.83E-03 (e)
:DIRP :  |MSR1|= 4.042E-03 |PRATT|= 4.025E-03 ANGLE=  10.1 DEGREES
:DIRQ :  |MSR1|= 2.696E-03 |PRATT|= 5.080E-03 ANGLE=  47.6 DEGREES
:DIRT :  |MSR1|= 4.859E-03 |PRATT|= 6.482E-03 ANGLE=  36.7 DEGREES
:MIX  :   MSD1   REGULARIZATION:  3.80E-04 GREED: 0.30460  Newton 1.00  0.7496                
     
       CHARGES OF MIXED CHARGE DENSITY
:CTO   : INTERSTITIAL CHARGE =     2.777050
:CPC   : PW Pseudocharge     =     7.786204
:CTO001: CHARGE SPHERE  1    =    56.222950

:NEC03: NUCLEAR AND ELECTRONIC CHARGE     59.00000    59.00000

PW CHANGE     H    K    L      Current       Change    Residue
:PTO001:      0    0    0  5.35191314E-02  1.895E-06 -1.504E-05
:PTO002:     -1   -1   -1 -1.48514522E-01  8.429E-05  9.449E-05
:PTO003:      0    0   -2  8.50309239E-02 -7.679E-05 -8.039E-05
:PTO004:      0   -2   -2  6.16127998E-02 -1.612E-04 -1.579E-04
:PTO005:     -1   -1   -3 -4.70747631E-02  2.904E-04  2.770E-04
:PTO006:     -2   -2   -2  1.10369284E-02 -9.219E-05 -9.201E-05
:PTO007:      0    0   -4 -1.84251771E-04 -4.804E-05 -4.532E-05
:PTO008:     -1   -3   -3  6.27024785E-03  1.247E-04  1.162E-04
:PTO009:      0   -2   -4 -8.08078120E-03 -1.069E-04 -9.683E-05
:PTO010:     -2   -2   -4 -9.10962484E-03 -5.366E-05 -5.272E-05
:PTO011:     -3   -3   -3  2.69008878E-03  9.598E-06  1.140E-05
:PTO012:     -1   -1   -5  8.50616545E-03  2.533E-05  2.460E-05

:ENE  : ********** TOTAL ENERGY IN Ry =       -18472.12715147


------- case.scf0 --------
 Flat Integration
 New Mode for Coulomb Integral
 Consistent 3/8+Simpson combinations
 Extension of core to zero
 LDM version in phi
 Fifth-order quadrature in outwin


            ---------
:ITE031: 31. ITERATION
            ---------

:NATO :    1 INDEPENDENT AND    1 TOTAL ATOMS IN UNITCELL
       SUBSTANCE: blebleble                                                   

       LATTICE                      = F   
:POT  : POTENTIAL OPTION EX_LDA EC_LDA VX_LDA VC_LDA
:LAT  : LATTICE CONSTANTS=  9.24236  9.24236  9.24236    1.571    1.571    1.571
:VOL  : UNIT CELL VOLUME =     197.37341
       MODE OF CALCULATION IS       = RELA
       NON-SPINPOLARIZED CALCULATION
:IFFT  : FFT-parameters:   72   72   72 Factor: 2.00


   CONVERGENCE PARAMETER FOR PSEUDOCHARGE: NCON=  9
   MAXIMAL VALUE OF RMT(JATOM)*ABSK(NKK) : RK  =29.82719


:VKCOUL :  VK-COUL convergence: 0.617E-07
       ATOMNUMBER=  1 Pr         VCOUL-ZERO =  0.41746E+00
:FIT001: LUSE= 13 SIGMA OF V-XC FIT FOR ATOM  1  0.2054688E-04
:FIT001: LUSE= 13 SIGMA OF V-XC FIT FOR ATOM  1  0.2054688E-04
:DEN  : DENSITY INTEGRAL  =         -7083.03821223   (Ry)
       ELS_POTENTIAL_AT Z=0 and Z=0.5:  -2.65578  -2.65578
       ELS_POTENTIAL_AT Y=0 and Y=0.5:   0.00000   0.00000
:VZERO:v0,v0c,v0x  -3.68437  -2.65578  -1.02859 v5,v5c,v5x  -3.68437  -2.65578  -1.02859
:VZERY:v0,v0c,v0x  -0.77234   0.00000  -0.77234 v5,v5c,v5x  -0.77234   0.00000  -0.77234
:VZERX:v0,v0c,v0x  -0.77234   0.00000  -0.77234 v5,v5c,v5x  -0.77234   0.00000  -0.77234

------- case.scf1 --------
:LMAX-WF:   10   Non-Spherical LMAX:   4

          ATOMIC SPHERE DEPENDENT PARAMETERS FOR ATOM  Pr        
:e__0001: OVERALL ENERGY PARAMETER IS    0.5385
          OVERALL BASIS SET ON ATOM IS LAPW
:E0_0001: E( 0)=    0.5385
             APW+lo
:E0_0001: E( 0)=   -1.9056   E(BOTTOM)=   -2.289   E(TOP)=   -1.522  4  5   185
             LOCAL ORBITAL
:E1_0001: E( 1)=    0.9385
             APW+lo
:E1_0001: E( 1)=   -0.5197   E(BOTTOM)=   -1.170   E(TOP)=    0.131  3  4   187
             LOCAL ORBITAL
:E3_0001: E( 3)=    0.7674   E(BOTTOM)=    0.624   E(TOP)=    0.911  0  1   117
             APW+lo
:E2_0001: E( 2)=    0.5385   E(BOTTOM)=    0.401   E(TOP)= -200.000  2 -1    80
             APW+lo

       K=   0.00000   0.00000   0.00000            1
:RKM  : MATRIX SIZE   157LOs:  20  RKM= 8.33  WEIGHT= 1.00  PGR:    
       EIGENVALUES ARE:
:EIG00001:      -1.8810781   -0.4788288   -0.4788288   -0.4788288    0.4968127
:EIG00006:       0.7452188    0.7758192    0.7758192    0.7758192    0.8137195
:EIG00011:       0.8137195    0.8137195    0.8813520    0.8813520    0.8813520
:EIG00016:       1.1020373    1.1020373    1.5212910    1.7873854    1.7873854
[...]
:4DD001: 4D*                 -7.460167206 Ry
:4D 001: 4D                  -7.190792278 Ry

------- case.scfm --------
:CINT001 Core Integral Atom   1   45.999513

       DENSITY AT NUCLEUS
        JATOM        VALENCE       SEMI-CORE          CORE           TOTAL
:RTO001:   1      653.409780        0.000000   656824.330981   657477.740761
     
       CHARGES OF NEW CHARGE DENSITY
:NTO   : INTERSTITIAL CHARGE =     2.781304
:NPC   : PW Pseudocharge     =     7.787237
:NTO001: CHARGE SPHERE  1    =    56.218226

:NEC01: NUCLEAR AND ELECTRONIC CHARGE     59.00000    58.99953
     
       CHARGES OF OLD CHARGE DENSITY
:OTO   : INTERSTITIAL CHARGE =     2.780339
:OPC   : PW Pseudocharge     =     7.787022
:OTO001: CHARGE SPHERE  1    =    56.219661

:NEC02: NUCLEAR AND ELECTRONIC CHARGE     59.00000    59.00000
     
       CONVERGENCE TEST
:DTO001: DIFFERENCE IN SPHERE  1 =  0.0026249

:DIS  :  CHARGE DISTANCE       ( 0.0026249 for atom    1 spin 1)      0.0026249
 PW Mixed is           47
 
******************************************************
* MULTISECANT MIXING VER9 RELEASE 10.4.0              *
* Standard Mode with controls                        *
* Fixed density scale                                *
* Regularization       1.000E-04                     *
* Trust Upper Limit    5.000E+00                     *
* Max Number of Memory Steps    8                    *
******************************************************
 
:PWTMP   1.3192E+02  1.2500E+02  1.9737E+02
:PLANE:  PW TOTAL      3.3788 DISTAN   7.01E-04  2.08E-02 %
:CHARG:  CLM/ATOM    977.1882 DISTAN   2.84E-03  2.90E-04 %
 
Step History
        DMIX         DMIXT        Red     Pred      Trust     Lambda    MagRel    MagAbs     Beta
 36   8.7716E-02   3.5067E-02  9.74E-01  2.79E-01  2.83E-01  2.27E-01  4.05E-02  1.14E-03  7.46E-01
 37   8.3369E-02   7.2036E-02  8.17E-01  1.83E-01  2.89E-01  3.58E-01  1.33E-01  3.64E-03  8.25E-01
 38   1.6941E-01   1.6941E-01  8.46E-01  2.04E-02  4.18E-01  5.91E-01  9.07E-02  2.03E-03  1.00E+00
 39   9.8760E-02   6.2207E-02  7.17E-01  1.41E-01  7.29E-01  1.00E+00  1.98E-01  3.74E-03  1.00E+00
 40   5.9251E-02   4.1157E-02  4.70E-01  5.35E-01  9.72E-01  1.50E+00  2.71E-01  3.67E-03  1.00E+00
 41   5.1448E-02   5.1448E-02  6.05E-01  4.17E-01  1.30E+00  3.66E-01  6.01E-01  3.84E-03  1.00E+00
 42   3.6982E-02   3.6982E-02  6.27E-01  6.06E-01  1.73E+00  6.21E-01  3.41E-01  1.31E-03  8.00E-01
 43   6.0948E-02   6.0948E-02  2.22E+00  1.90E-01  2.30E+00  1.00E+00  1.29E+00  3.13E-03  1.00E+00
 44   4.6759E-02   4.6759E-02 -1.00E+00  2.11E-01  1.73E+00  1.00E+00  2.85E-01  1.53E-03  8.00E-01
:JACOBIANS    8.506E-01   2.939E+00
  
:NORMS:  1/Froebius, Min, Max, Used   0.5239E+00  0.4444E+00  0.1306E+01  0.6156E+00
:INFO :  Number of Memory Steps    8 Skipping   35
:INFO :  SLambda=    0.8657113669  Max    1.5000000000
:PREDicted Charge, CTotal, PW Trust    1.290E-03   1.290E-03   2.948E-03
:PREDicted DMix, Beta, BLim   8.6566E-03  1.5886E+00  9.3667E-01

Eigenvalues, unscaled except for SY+YY
   #     SY Real        SY Imag          SS             YY         SY+YY Real      SY+YY Imag
   1   2.458946E+00   0.000000E+00   1.399330E+00   7.086197E+00   9.271936E+00   0.000000E+00
   2   7.172006E-01   0.000000E+00   6.378455E-01   7.208191E-01   1.285173E+00   0.000000E+00
   3   1.404295E-01   0.000000E+00   1.252607E-01   1.523919E-01   2.702797E-01   0.000000E+00
   4   3.076692E-02   0.000000E+00   2.861075E-02   3.397843E-02   6.316157E-02   0.000000E+00
   5   5.719064E-03   0.000000E+00   4.405336E-03   6.536689E-03   1.213760E-02   0.000000E+00
   6   3.254455E-07   0.000000E+00   3.601257E-07   6.966041E-05   9.473180E-05   0.000000E+00
   7   1.502592E-06   4.785292E-07   1.886547E-07   6.182360E-06  -8.999958E-11   0.000000E+00
   8   1.502592E-06  -4.785292E-07   5.108262E-08   1.258217E-06   3.885831E-06   0.000000E+00
 
:INFO :  Singular value  9.306E+00 Weight  1.000E+00 Projection  1.090E-03
:INFO :  Singular value  1.281E+00 Weight  1.000E+00 Projection -9.971E-06
:INFO :  Singular value  2.704E-01 Weight  1.000E+00 Projection  4.312E-04
:INFO :  Singular value  6.320E-02 Weight  9.999E-01 Projection  1.799E-03
:INFO :  Singular value  1.217E-02 Weight  9.966E-01 Projection  9.934E-05
:INFO :  Singular value  9.914E-05 Weight  1.920E-02 Projection  6.442E-04
:INFO :  Singular value  4.539E-06 Weight  4.103E-05 Projection  1.298E-06
:INFO :  Singular value  7.330E-11 Weight  1.070E-14 Projection -2.201E-11
:RANK :  ACTIVE   5.02/8  =  62.70 % ; YY RANK   5.00/8  =  62.47 %
 
:BLIM :  VZERO Control Off
:TRUST:  Step 2.30E+00  Charge 2.11E-03 (e) CTO  2.77E-03 (e) PW  3.50E-03 (e)
:DIRM :  MEMORY  8/8  SCALE   1.000 RED  0.54 PRED  0.21 NEXT  0.10 
:TRAVE:  Charge 7.45E-04 (e) CTO  7.45E-04 (e) PW  1.40E-03 (e)
:DIRP :  |MSR1|= 3.962E-04 |PRATT|= 7.013E-04 ANGLE=  16.0 DEGREES
:DIRQ :  |MSR1|= 1.392E-03 |PRATT|= 2.838E-03 ANGLE=  37.8 DEGREES
:DIRT :  |MSR1|= 1.447E-03 |PRATT|= 2.924E-03 ANGLE=  36.8 DEGREES
:MIX  :   MSD1   REGULARIZATION:  7.09E-04 GREED: 0.03030  Newton 1.00  0.4951                
     
       CHARGES OF MIXED CHARGE DENSITY
:CTO   : INTERSTITIAL CHARGE =     2.780892
:CPC   : PW Pseudocharge     =     7.787824
:CTO001: CHARGE SPHERE  1    =    56.219108

:NEC03: NUCLEAR AND ELECTRONIC CHARGE     59.00000    59.00000

PW CHANGE     H    K    L      Current       Change    Residue
:PTO001:      0    0    0  5.35468035E-02  6.863E-06  1.502E-05
:PTO002:     -1   -1   -1 -1.48530308E-01 -1.506E-05 -2.085E-05
:PTO003:      0    0   -2  8.50286099E-02  7.790E-06  1.062E-05
:PTO004:      0   -2   -2  6.16389752E-02  9.016E-06  9.450E-06
:PTO005:     -1   -1   -3 -4.71166488E-02 -1.088E-05 -8.887E-06
:PTO006:     -2   -2   -2  1.10641721E-02  3.991E-06  3.889E-06
:PTO007:      0    0   -4 -1.82021989E-04  1.045E-06  5.940E-07
:PTO008:     -1   -3   -3  6.27501194E-03  2.043E-07  2.392E-06
:PTO009:      0   -2   -4 -8.09902731E-03 -1.248E-06 -3.885E-06
:PTO010:     -2   -2   -4 -9.11440007E-03 -1.061E-06 -1.572E-06
:PTO011:     -3   -3   -3  2.68620634E-03 -7.788E-08 -4.910E-07
:PTO012:     -1   -1   -5  8.51833711E-03  1.173E-06  1.816E-06

:ENE  : ********** TOTAL ENERGY IN Ry =       -18472.12764239


------- case.scf0 --------
 Flat Integration
 New Mode for Coulomb Integral
 Consistent 3/8+Simpson combinations
 Extension of core to zero
 LDM version in phi
 Fifth-order quadrature in outwin


            ---------
:ITE068: 68. ITERATION
            ---------

:NATO :    1 INDEPENDENT AND    1 TOTAL ATOMS IN UNITCELL
       SUBSTANCE: blebleble                                                   

       LATTICE                      = F   
:POT  : POTENTIAL OPTION EX_LDA EC_LDA VX_LDA VC_LDA
:LAT  : LATTICE CONSTANTS=  9.24236  9.24236  9.24236    1.571    1.571    1.571
:VOL  : UNIT CELL VOLUME =     197.37341
       MODE OF CALCULATION IS       = RELA
       NON-SPINPOLARIZED CALCULATION
:IFFT  : FFT-parameters:   72   72   72 Factor: 2.00


   CONVERGENCE PARAMETER FOR PSEUDOCHARGE: NCON=  9
   MAXIMAL VALUE OF RMT(JATOM)*ABSK(NKK) : RK  =29.82719


:VKCOUL :  VK-COUL convergence: 0.614E-07
       ATOMNUMBER=  1 Pr         VCOUL-ZERO =  0.41764E+00
:FIT001: LUSE= 13 SIGMA OF V-XC FIT FOR ATOM  1  0.2058009E-04
:FIT001: LUSE= 13 SIGMA OF V-XC FIT FOR ATOM  1  0.2058009E-04
:DEN  : DENSITY INTEGRAL  =         -7082.68159213   (Ry)
       ELS_POTENTIAL_AT Z=0 and Z=0.5:  -2.65776  -2.65776
       ELS_POTENTIAL_AT Y=0 and Y=0.5:   0.00000   0.00000
:VZERO:v0,v0c,v0x  -3.68641  -2.65776  -1.02865 v5,v5c,v5x  -3.68641  -2.65776  -1.02865
:VZERY:v0,v0c,v0x  -0.77255   0.00000  -0.77255 v5,v5c,v5x  -0.77255   0.00000  -0.77255
:VZERX:v0,v0c,v0x  -0.77255   0.00000  -0.77255 v5,v5c,v5x  -0.77255   0.00000  -0.77255

------- case.scf1 --------
:LMAX-WF:   10   Non-Spherical LMAX:   4

          ATOMIC SPHERE DEPENDENT PARAMETERS FOR ATOM  Pr        
:e__0001: OVERALL ENERGY PARAMETER IS    0.5385
          OVERALL BASIS SET ON ATOM IS LAPW
:E0_0001: E( 0)=    0.5385
             APW+lo
:E0_0001: E( 0)=   -1.9084   E(BOTTOM)=   -2.292   E(TOP)=   -1.525  4  5   191
             LOCAL ORBITAL
:E1_0001: E( 1)=    0.9385
             APW+lo
:E1_0001: E( 1)=   -0.5220   E(BOTTOM)=   -1.172   E(TOP)=    0.128  3  4   189
             LOCAL ORBITAL
:E3_0001: E( 3)=    0.7623   E(BOTTOM)=    0.619   E(TOP)=    0.905  0  1   116
             APW+lo
:E2_0001: E( 2)=    0.5385   E(BOTTOM)=    0.400   E(TOP)= -200.000  2 -1    80
             APW+lo

       K=   0.00000   0.00000   0.00000            1
:RKM  : MATRIX SIZE   157LOs:  20  RKM= 8.33  WEIGHT= 1.00  PGR:    
       EIGENVALUES ARE:
:EIG00001:      -1.8837867   -0.4810256   -0.4810256   -0.4810256    0.4966139
:EIG00006:       0.7407664    0.7709133    0.7709133    0.7709133    0.8083928
:EIG00011:       0.8083928    0.8083928    0.8807315    0.8807315    0.8807315
:EIG00016:       1.1011073    1.1011073    1.5204672    1.7869795    1.7869795
:EIG00021:       1.7869795    1.8799418    2.7933250    2.7933250    2.7933250
:EIG00026:       2.9390549    2.9390549    2.9390549    3.0669664    3.0669664
:EIG00031:       3.5721638    3.7277494    3.7277494    3.7277494    4.2282203
:EIG00036:       4.2282203    4.4592999    4.4592999    4.4592999    4.5272276
:EIG00041:       4.5272276    4.5272276    4.5559204    4.5559204    4.5559204
:EIG00046:       4.8926980    4.8926980    4.8926980    4.9966380    4.9966380
 
:EIG00051:       5.0591079    5.2261220    5.2261220    5.2261220    5.2708695
:EIG00056:       5.2708695    5.2708695    5.3344465    5.3797845    5.4162103
:EIG00061:       5.4162103    5.4162103    5.8106039    5.8106039    5.8106039
:EIG00066:       6.3371668    7.1157762    7.1314463    7.1314463    7.6434185
:EIG00071:       7.6434185    7.6434185
       ********************************************************

:KPT   :      NUMBER OF K-POINTS:   165

------- case.scfso --------
   0.0   0.0 angle (M,z), angle (M,x) deg
 
        SPIN-ORBIT EIGENVALUES:
     K=   0.00000   0.00000   0.00000            1
      MATRIX SIZE=  144   WEIGHT= 1.00
     EIGENVALUES ARE:
          -1.8837867   -1.8837867   -0.6311316   -0.6311316   -0.4100223
          -0.4100223   -0.4100223   -0.4100223    0.4966139    0.4966139
           0.7380716    0.7380716    0.7614363    0.7614363    0.7614363
           0.7614363    0.7823206    0.7823206    0.8067725    0.8067725
           0.8142231    0.8142231    0.8142231    0.8142231    0.8767675
           0.8767675    0.8767675    0.8767675    0.8876226    0.8876226
           1.1014498    1.1014498    1.1014498    1.1014498    1.5205367
           1.5205367    1.7828135    1.7828135    1.7889836    1.7889836

           1.7889836    1.7889836    1.8799418    1.8799418    2.7880725
           2.7880725    2.7880725    2.7880725    2.8033096    2.8033096
           2.8581600    2.8581600    2.9806197    2.9806197    2.9806197
           2.9806197    3.0672668    3.0672668    3.0672668    3.0672668
           3.5721638    3.5721638    3.7273450    3.7273450    3.7279626
           3.7279626    3.7279626    3.7279626    4.2281715    4.2281715
           4.2281715    4.2281715    4.4577861    4.4577861    4.4577861
           4.4577861    4.4626687    4.4626687    4.4868887    4.4868887

       ********************************************************

------- case.scf2 --------
:GMA  : POTENTIAL AND CHARGE CUT-OFF  12.00 Ry**.5




:POS001: at.nr.   1 position = 0.00000 0.00000 0.50000  multiplicity =  1

       lmmax  5
       lm=   0 0  4 0  4 4  6 0  6 4
:FER gutzwiller fermi energy   0.75985
:EORB         -0.042167350
:SUM sum of gutz band energies         -3.465440955

:CHA001: total charge inside sphere   1 =    10.219616
:PCS001: partial charges sphere =  1 s,p,d,f,      d-eg,d-t2g 
:QTL001: 2.0389 5.3365 0.8242 2.0191 0.0000 0.0000 0.0000 0.3006 0.5235 0.0000 0.0000 0.0000

:CHA  : total charge inside unit cell =       6.500001

------- case.scfc --------

        1.ATOM      Pr                   14 CORE STATES
:1S 001: 1S               -3066.825799243 Ry
:2S 001: 2S                -492.577920661 Ry
:2PP001: 2P*               -465.677086285 Ry
:2P 001: 2P                -430.279581696 Ry
:3S 001: 3S                -105.669565706 Ry
:3PP001: 3P*                -94.207340530 Ry
:3P 001: 3P                 -87.199583541 Ry
:3DD001: 3D*                -67.126276483 Ry
:3D 001: 3D                 -65.614745026 Ry
:4S 001: 4S                 -20.348472966 Ry
:4PP001: 4P*                -16.055296440 Ry
:4P 001: 4P                 -14.527974974 Ry
:4DD001: 4D*                 -7.460963184 Ry
:4D 001: 4D                  -7.191581998 Ry

------- case.scfm --------
:CINT001 Core Integral Atom   1   45.999513

       DENSITY AT NUCLEUS
        JATOM        VALENCE       SEMI-CORE          CORE           TOTAL
:RTO001:   1      653.459372        0.000000   656824.329968   657477.789339
     
       CHARGES OF NEW CHARGE DENSITY
:NTO   : INTERSTITIAL CHARGE =     2.780368
:NPC   : PW Pseudocharge     =     7.786696
:NTO001: CHARGE SPHERE  1    =    56.219129

:NEC01: NUCLEAR AND ELECTRONIC CHARGE     59.00000    58.99950
     
       CHARGES OF OLD CHARGE DENSITY
:OTO   : INTERSTITIAL CHARGE =     2.780892
:OPC   : PW Pseudocharge     =     7.787824
:OTO001: CHARGE SPHERE  1    =    56.219108

:NEC02: NUCLEAR AND ELECTRONIC CHARGE     59.00000    59.00000
     
       CONVERGENCE TEST
:DTO001: DIFFERENCE IN SPHERE  1 =  0.0002468

:DIS  :  CHARGE DISTANCE       ( 0.0002468 for atom    1 spin 1)      0.0002468
 PW Mixed is           47
 
******************************************************
* MULTISECANT MIXING VER9 RELEASE 10.4.0              *
* Slow Mode, cautious                                *
* Fixed density scale                                *
* Regularization       1.000E-04                     *
* Step Trust Radius    0.75000                       *
* Trust Upper Limit    2.000E+00                     *
* Max Number of Memory Steps   12                    *
******************************************************
 
:PWTMP   1.3192E+02  1.2500E+02  1.9737E+02
:PLANE:  PW TOTAL      3.3792 DISTAN   1.42E-04  4.20E-03 %
:CHARG:  CLM/ATOM    977.1885 DISTAN   2.67E-04  2.73E-05 %
 
Step History
        DMIX         DMIXT        Red     Pred      Trust     Lambda    MagRel    MagAbs     Beta
 33   1.3326E-01   1.3326E-01  1.01E+00  4.04E-01  3.84E-02  5.28E-01  1.15E-02  2.76E-04  5.97E-01
 34   2.0881E-01   2.0881E-01  1.03E+00  2.54E-01  5.75E-02  5.41E-01  3.30E-02  8.04E-04  7.46E-01
 35   1.1556E-01   1.1556E-01  1.12E+00  6.91E-02  1.38E-01  4.33E-01  6.82E-02  1.71E-03  9.32E-01
 36   8.7716E-02   3.5067E-02  9.74E-01  2.79E-01  2.83E-01  2.27E-01  4.05E-02  1.14E-03  7.46E-01
 37   8.3369E-02   7.2036E-02  8.17E-01  1.83E-01  2.89E-01  3.58E-01  1.33E-01  3.64E-03  8.25E-01
 38   1.6941E-01   1.6941E-01  8.46E-01  2.04E-02  4.18E-01  5.91E-01  9.07E-02  2.03E-03  1.00E+00
 39   9.8760E-02   6.2207E-02  7.17E-01  1.41E-01  7.29E-01  1.00E+00  1.98E-01  3.74E-03  1.00E+00
 40   5.9251E-02   4.1157E-02  4.70E-01  5.35E-01  9.72E-01  1.50E+00  2.71E-01  3.67E-03  1.00E+00
 41   5.1448E-02   5.1448E-02  6.05E-01  4.17E-01  1.30E+00  3.66E-01  6.01E-01  3.84E-03  1.00E+00
 42   3.6982E-02   3.6982E-02  6.27E-01  6.06E-01  1.73E+00  6.21E-01  3.41E-01  1.31E-03  8.00E-01
 43   6.0948E-02   6.0948E-02  2.22E+00  1.90E-01  2.30E+00  1.00E+00  1.29E+00  3.13E-03  1.00E+00
 44   4.6759E-02   4.6759E-02  5.44E-01  2.11E-01  1.73E+00  8.66E-01  2.85E-01  1.53E-03  8.00E-01
 45   3.0300E-02   3.0300E-02 -1.00E+00  9.94E-02  2.30E+00  1.00E+00  4.95E-01  1.45E-03  1.00E+00
:JACOBIANS    8.976E-01   3.083E+00
  
:NORMS:  1/Froebius, Min, Max, Used   0.5378E+00  0.4735E+00  0.1317E+01  0.6115E+00
:INFO :  Number of Memory Steps   12 Skipping   32
:INFO :  SLambda=    0.2264411144  Max    0.8699882516
:PREDicted Charge, CTotal, PW Trust    5.496E-04   5.496E-04   8.841E-04
:PREDicted DMix, Beta, BLim   8.6869E-03  9.7698E-01  5.8980E-01

Eigenvalues, unscaled except for SY+YY
   #     SY Real        SY Imag          SS             YY         SY+YY Real      SY+YY Imag
   1   3.933147E+00   0.000000E+00   2.367446E+00   1.055969E+01   1.148089E+01   0.000000E+00
   2   1.204538E+00   0.000000E+00   9.875849E-01   1.302191E+00   1.542280E+00   0.000000E+00
   3   1.023156E-01   0.000000E+00   9.275357E-02   1.115732E-01   1.364021E-01   0.000000E+00
   4   2.091176E-02   0.000000E+00   2.050130E-02   2.193805E-02   2.693438E-02   0.000000E+00
   5   3.736761E-03   0.000000E+00   2.906201E-03   4.308177E-03   5.305123E-03   0.000000E+00
   6   7.201872E-06   8.233636E-06   3.182181E-06   2.205851E-04   2.295226E-04   0.000000E+00
   7   7.201872E-06  -8.233636E-06   4.836929E-07   7.484314E-05   8.475841E-05   0.000000E+00
   8   2.737216E-07   0.000000E+00   9.963000E-08   5.232785E-06   4.831849E-06   0.000000E+00
   9   2.282138E-07   0.000000E+00   3.327763E-08   2.192173E-06   2.263849E-06   0.000000E+00
  10   4.264501E-08   0.000000E+00   9.082588E-09   1.080387E-07  -8.999983E-11   0.000000E+00
  11   1.442897E-09   0.000000E+00   3.453646E-09   5.098400E-08   6.543656E-08   0.000000E+00
  12   1.568225E-08   0.000000E+00   1.874131E-10   2.020761E-08   3.153829E-08   0.000000E+00
 
:INFO :  Singular value  1.149E+01 Weight  1.000E+00 Projection -1.649E-05
:INFO :  Singular value  1.542E+00 Weight  1.000E+00 Projection  8.079E-06
:INFO :  Singular value  1.364E-01 Weight  9.999E-01 Projection -2.532E-04
:INFO :  Singular value  2.694E-02 Weight  9.985E-01 Projection -1.809E-04
:INFO :  Singular value  5.315E-03 Weight  9.620E-01 Projection -3.824E-05
:INFO :  Singular value  2.294E-04 Weight  4.505E-02 Projection  6.769E-04
:INFO :  Singular value  8.538E-05 Weight  6.496E-03 Projection -1.257E-04
:INFO :  Singular value  4.809E-06 Weight  2.074E-05 Projection  5.981E-07
:INFO :  Singular value  2.265E-06 Weight  4.600E-06 Projection -7.757E-08
:INFO :  Singular value  6.592E-08 Weight  3.897E-09 Projection -7.342E-10
:INFO :  Singular value  3.847E-08 Weight  1.327E-09 Projection  4.203E-11
:INFO :  Singular value  7.290E-11 Weight  4.766E-15 Projection -8.647E-13
:RANK :  ACTIVE   5.01/12 =  41.77 % ; YY RANK   4.99/12 =  41.56 %
 
:DLIM :  Beta Active  9.827E-01
:BLIM :  VZERO Control Off
:TRUST:  Step 2.88E+00  Charge 2.11E-03 (e) CTO  2.77E-03 (e) PW  3.50E-03 (e)
:DIRM :  MEMORY 12/12 SCALE   1.000 RED  0.10 PRED  0.10 NEXT  0.92 BETA  0.98
:TRAVE:  Charge 3.79E-04 (e) CTO  3.79E-04 (e) PW  7.25E-04 (e)
:DIRP :  |MSR1|= 4.021E-05 |PRATT|= 1.420E-04 ANGLE=  17.0 DEGREES
:DIRQ :  |MSR1|= 1.018E-04 |PRATT|= 2.668E-04 ANGLE=  69.9 DEGREES
:DIRT :  |MSR1|= 1.095E-04 |PRATT|= 3.023E-04 ANGLE=  63.4 DEGREES
:MIX  :   MSD1   REGULARIZATION:  1.06E-03 GREED: 0.02490  Newton 1.00  0.3622                
     
       CHARGES OF MIXED CHARGE DENSITY
:CTO   : INTERSTITIAL CHARGE =     2.780878
:CPC   : PW Pseudocharge     =     7.787913
:CTO001: CHARGE SPHERE  1    =    56.219122

:NEC03: NUCLEAR AND ELECTRONIC CHARGE     59.00000    59.00000

PW CHANGE     H    K    L      Current       Change    Residue
:PTO001:      0    0    0  5.35471856E-02  3.821E-07  1.322E-06
:PTO002:     -1   -1   -1 -1.48532376E-01 -2.068E-06 -7.199E-06
:PTO003:      0    0   -2  8.50299120E-02  1.302E-06  4.081E-06
:PTO004:      0   -2   -2  6.16397282E-02  7.531E-07  3.032E-06
:PTO005:     -1   -1   -3 -4.71171731E-02 -5.243E-07 -3.305E-06
:PTO006:     -2   -2   -2  1.10642597E-02  8.758E-08  1.125E-06
:PTO007:      0    0   -4 -1.81962661E-04  5.933E-08  2.428E-08
:PTO008:     -1   -3   -3  6.27488117E-03 -1.308E-07  1.520E-06
:PTO009:      0   -2   -4 -8.09881556E-03  2.117E-07 -1.918E-06
:PTO010:     -2   -2   -4 -9.11427983E-03  1.202E-07 -1.157E-06
:PTO011:     -3   -3   -3  2.68620567E-03 -6.673E-10  8.227E-08
:PTO012:     -1   -1   -5  8.51815271E-03 -1.844E-07  1.345E-06

:ENE  : ********** TOTAL ENERGY IN Ry =       -18472.12764575

