
:LABEL1: Calculations in /home/ykent/GWIEN/example/Pr/aU/V23/case
:LABEL2: on didymium-2.cmpgroup.ameslab.gov at Fri Jul 10 13:27:54 CDT 2020
:LABEL3: using WIEN2k_19.1 (Release 25/6/2019) in /home/ykent/opt/src/WIEN2k_19.1
:LABEL4: using the command: run_lapw -cc 0.0001
 Flat Integration
 New Mode for Coulomb Integral
 Consistent 3/8+Simpson combinations
 Extension of core to zero
 LDM version in phi
 Fifth-order quadrature in outwin


            ---------
:ITE001:  1. ITERATION
            ---------

:NATO :    1 INDEPENDENT AND    2 TOTAL ATOMS IN UNITCELL
       SUBSTANCE: aU                                                          

       LATTICE                      = CXY 
:POT  : POTENTIAL OPTION EX_LDA EC_LDA VX_LDA VC_LDA
:LAT  : LATTICE CONSTANTS=  6.83209 13.86404 11.96912    1.571    1.571    1.571
:VOL  : UNIT CELL VOLUME =     566.85996
       MODE OF CALCULATION IS       = RELA
       NON-SPINPOLARIZED CALCULATION
:IFFT  : FFT-parameters:   60  108   96 Factor: 2.00


   CONVERGENCE PARAMETER FOR PSEUDOCHARGE: NCON=  9
   MAXIMAL VALUE OF RMT(JATOM)*ABSK(NKK) : RK  =27.59644


:VKCOUL :  VK-COUL convergence: 0.134E-06
       ATOMNUMBER=  1 Pr1        VCOUL-ZERO = -0.79342E-01
:EFG001:                        EFG         =    -0.01902   *10**21  V / m**2
                               V20  TOT/SRF=    -0.01647    -0.02182
                               V22  TOT/SRF=     0.00312     0.00392
                               V22M TOT/SRF=     0.00000     0.00000
                               V21  TOT/SRF=     0.00000     0.00000
                               V21M TOT/SRF=     0.00000     0.00000

              0.01263    0.00000    0.00000        0.01263    0.00000    0.00000
              0.00000    0.00639    0.00000        0.00000    0.00639    0.00000
              0.00000    0.00000   -0.01902        0.00000    0.00000   -0.01902

         MAIN DIRECTIONS OF THE EFG   1.0000  0.0000  0.0000
                                      0.0000  1.0000  0.0000
                                      0.0000  0.0000  1.0000
:ANG001:  ANGLE WITH OLD X-AXIS =         0.0

:ETA001:                         ASYMM. ETA =     0.32809


     HELLMANN-FEYNMAN-FORCE IN mRy/a.u. = |F|  Fx       Fy             Fz
:FHF001:   1.ATOM    218.687166893993      0.000000000000      0.000000000000   -218.687166893993

:FIT001: LUSE= 13 SIGMA OF V-XC FIT FOR ATOM  1  0.1358730E-05
:FIT001: LUSE= 13 SIGMA OF V-XC FIT FOR ATOM  1  0.1358730E-05
:DEN  : DENSITY INTEGRAL  =        -14133.31509817   (Ry)
       ELS_POTENTIAL_AT Z=0 and Z=0.5:   0.63265   0.63265
       ELS_POTENTIAL_AT Y=0 and Y=0.5:   0.07659   0.07659
:VZERO:v0,v0c,v0x   0.10202   0.63265  -0.53064 v5,v5c,v5x   0.10202   0.63265  -0.53064
:VZERY:v0,v0c,v0x  -0.63611   0.07659  -0.71270 v5,v5c,v5x  -0.63611   0.07659  -0.71270
:VZERX:v0,v0c,v0x  -1.04172  -0.35726  -0.68446 v5,v5c,v5x  -1.04172  -0.35726  -0.68446
:LMAX-WF:   10   Non-Spherical LMAX:   4

          ATOMIC SPHERE DEPENDENT PARAMETERS FOR ATOM  Pr1       
:e__0001: OVERALL ENERGY PARAMETER IS    0.3000
          OVERALL BASIS SET ON ATOM IS LAPW
:E0_0001: E( 0)=    0.3000
             APW+lo
:E0_0001: E( 0)=   -2.1826   E(BOTTOM)=   -2.818   E(TOP)=   -1.547  4  5   161
             LOCAL ORBITAL
:E1_0001: E( 1)=    0.7000
             APW+lo
:E1_0001: E( 1)=   -0.7130   E(BOTTOM)=   -1.671   E(TOP)=    0.245  3  4   205
             LOCAL ORBITAL
:E3_0001: E( 3)=    0.4747   E(BOTTOM)=    0.266   E(TOP)=    0.683  0  1   122
             APW+lo
:E2_0001: E( 2)=    0.3000   E(BOTTOM)=    0.070   E(TOP)= -200.000  2 -1    98
             APW+lo

       K=   0.06250   0.00000   0.06250            1
:RKM  : MATRIX SIZE   530LOs:  40  RKM= 8.48  WEIGHT= 4.00  PGR:    
       EIGENVALUES ARE:
:EIG00001:      -2.1466817   -2.1392158   -0.8550616   -0.8058574   -0.7950353
:EIG00006:      -0.7917914   -0.7879585   -0.7873474    0.2682790    0.4154986
:EIG00011:       0.4919403    0.4922729    0.4924279    0.4955439    0.4967097
:EIG00016:       0.5044947    0.5077615    0.5078357    0.5104165    0.5124150
:EIG00021:       0.5152785    0.5178152    0.5182490    0.5203732    0.5631667
:EIG00026:       0.5756201    0.6294213    0.6587620    0.6646048    0.7071594
:EIG00031:       0.7215332    0.7849093    0.8276713    0.8613926    1.0948440
:EIG00036:       1.1539798    1.2428094    1.2463247    1.3820431    1.4339625
:EIG00041:       1.4616789    1.5622236    1.6173649    1.6406086    1.7068125
:EIG00046:       1.7872383    1.7930151    1.8202301    1.8916954    1.9598746
 
       ********************************************************

:KPT   :      NUMBER OF K-POINTS:   288
:GAP (global)   :    0.0    Ry =     0.0   eV (metal)
         Bandranges (emin - emax) and occupancy:
:BAN00005:   5   -0.838429   -0.795035  2.00000000
:BAN00006:   6   -0.828152   -0.789525  2.00000000
:BAN00007:   7   -0.814882   -0.787822  2.00000000
:BAN00008:   8   -0.798544   -0.785239  2.00000000
:BAN00009:   9    0.264169    0.469738  2.00000000
:BAN00010:  10    0.366919    0.482231  2.00000000
:BAN00011:  11    0.456089    0.491940  2.00000000
:BAN00012:  12    0.482954    0.495924  2.00000000
:BAN00013:  13    0.489667    0.501546  1.52431104
:BAN00014:  14    0.492558    0.505221  0.46665823
:BAN00015:  15    0.496019    0.507523  0.00903072
:BAN00016:  16    0.499659    0.508110  0.00000000
:BAN00017:  17    0.502203    0.509446  0.00000000
:BAN00018:  18    0.503789    0.510110  0.00000000
:BAN00019:  19    0.506305    0.512919  0.00000000
:BAN00020:  20    0.506649    0.515661  0.00000000
        Energy to separate low and high energystates:    0.21417


:NOE  : NUMBER OF ELECTRONS          =   26.000

:FER  : F E R M I - ENERGY(TETRAH.M.)=   0.4962702940
:GMA  : POTENTIAL AND CHARGE CUT-OFF  12.00 Ry**.5

:POS001: ATOM   -1 X,Y,Z = 0.00000 0.89750 0.25000  MULT= 2  ZZ= 59.000  Pr1       

       LMMAX 16
       LM=   0 0  1 0  2 0  2 2  3 0  3 2  4 0  4 2  4 4  5 0  5 2  5 4  6 0  6 2  6 4  6 6

:CHA001: TOTAL VALENCE CHARGE INSIDE SPHERE   1 =   9.5967    (RMT=  2.3000 )
:PCS001: PARTIAL CHARGES SPHERE =  1 S,P,D,F,PX,PY,PZ,D-Z2,D-X2Y2,D-XY,D-XZ,D-YZ 
:QTL001: 1.9374 5.0219 0.4014 2.2359 1.6717 1.6721 1.6782 0.0710 0.0748 0.0932 0.0764 0.0860
        Q-s-low E-s-low   Q-p-low E-p-low   Q-d-low E-d-low   Q-f-low E-f-low
:EPL001:  1.8700 -2.1395    4.9692 -0.8146    0.0007 -0.8372    0.0002 -0.8466
        Q-s-hi  E-s-hi    Q-p-hi  E-p-hi    Q-d-hi  E-d-hi    Q-f-hi  E-f-hi 
:EPH001:  0.0674  0.4006    0.0528  0.4354    0.4007  0.4580    2.2357  0.4873

                      VXX         VYY         VZZ       UP TO R
:VZZ001:            -3.97122     4.03550    -0.06428       2.300

:CHA  : TOTAL VALENCE CHARGE INSIDE UNIT CELL =      26.000000

:SUM  : SUM OF EIGENVALUES =         -13.716854548


        1.ATOM      Pr1                  14 CORE STATES
       CORE-FORCE in mRy/a.u. = |F|      Fx             Fy             Fz
:FCO001:   1.ATOM    178.714498304389      0.000000000000      0.000000000000    178.714498304389

:1S 001: 1S               -3067.080183437 Ry
:2S 001: 2S                -492.845815646 Ry
:2PP001: 2P*               -465.943464513 Ry
:2P 001: 2P                -430.546655996 Ry
:3S 001: 3S                -105.943064601 Ry
:3PP001: 3P*                -94.480502369 Ry
:3P 001: 3P                 -87.473082061 Ry
:3DD001: 3D*                -67.399508920 Ry
:3D 001: 3D                 -65.888074411 Ry
:4S 001: 4S                 -20.627136308 Ry
:4PP001: 4P*                -16.334044125 Ry
:4P 001: 4P                 -14.806905825 Ry
:4DD001: 4D*                 -7.740362020 Ry
:4D 001: 4D                  -7.471052299 Ry
:CINT001 Core Integral Atom   1   45.998487

       DENSITY AT NUCLEUS
        JATOM        VALENCE       SEMI-CORE          CORE           TOTAL
:RTO001:   1      645.983079        0.000000   656821.193707   657467.176785
     
       CHARGES OF NEW CHARGE DENSITY
:NTO   : INTERSTITIAL CHARGE =     6.806653
:NPC   : PW Pseudocharge     =    16.758522
:NTO001: CHARGE SPHERE  1    =    55.595160

:NEC01: NUCLEAR AND ELECTRONIC CHARGE    118.00000   117.99697
     
       CHARGES OF OLD CHARGE DENSITY
:OTO   : INTERSTITIAL CHARGE =     7.053692
:OPC   : PW Pseudocharge     =    15.637311
:OTO001: CHARGE SPHERE  1    =    55.473785

:NEC02: NUCLEAR AND ELECTRONIC CHARGE    118.00000   118.00126
     
       CONVERGENCE TEST
:DTO001: DIFFERENCE IN SPHERE  1 =  0.2329971

:DIS  :  CHARGE DISTANCE       ( 0.2329971 for atom    1 spin 1)      0.2329971
 PW Mixed is          580
 
******************************************************
* MULTISECANT MIXING VER9 RELEASE 10.4.0              *
* Standard Mode with controls                        *
* Fixed density scale                                *
* Regularization       1.000E-04                     *
* Trust Upper Limit    5.000E+00                     *
* Max Number of Memory Steps    8                    *
******************************************************
 
:PWTMP   4.6493E+02  1.9467E+02  5.6686E+02
:PLANE:  PW TOTAL      3.8525 DISTAN   4.66E-01  1.21E+01 %
:CHARG:  CLM/ATOM   1382.0503 DISTAN   7.95E-01  5.76E-02 %
 
Step History
        DMIX         DMIXT        Red     Pred      Trust     Lambda    MagRel    MagAbs     Beta
  1   3.5000E-02   3.5000E-02 -1.00E+00  1.00E+00 -1.00E+01  1.00E+00  3.50E-02  3.50E-02  1.00E+00
:INFO :  Note, Pratt in use
:TRUST:  Step 3.75E-02  Charge 7.50E-02 (e) CTO  2.50E-01 (e) PW  3.50E-01 (e)
:DIRM :  MEMORY  0/ 8 SCALE   1.000
Performing Pseudo Compensation
Final Pseudo Compensation Rescaling     1.00000E+00
:MIX  :   PRATT  REGULARIZATION:  1.00E-04 GREED: 0.02500                  
     
       CHARGES OF MIXED CHARGE DENSITY
:CTO   : INTERSTITIAL CHARGE =     7.046360
:CPC   : PW Pseudocharge     =    16.501469
:CTO001: CHARGE SPHERE  1    =    55.476820

:NEC03: NUCLEAR AND ELECTRONIC CHARGE    118.00000   118.00000

PW CHANGE     H    K    L      Current       Change    Residue
:PTO001:      0    0    0  4.15408231E-02  1.519E-03  1.568E-03
:PTO003:      0    2    0  1.21534187E-02  7.551E-04  1.580E-03
:PTO004:     -1    1    0  6.07998640E-02  4.077E-03  5.549E-03
:PTO005:      0    2   -1 -7.11288972E-02 -4.843E-03 -6.130E-03
:PTO006:      0    0   -2 -3.69204935E-02 -2.512E-03 -2.887E-03
:PTO007:     -1    1   -1 -7.84267471E-02 -5.794E-03 -6.706E-03
:PTO008:      0    2   -2 -1.33835292E-02 -1.211E-03 -1.559E-03
:PTO009:     -1    1   -2 -6.83651045E-02 -6.666E-03 -9.290E-03
:PTO011:     -1    3    0 -1.15091211E-02 -1.321E-03 -1.510E-03
:PTO012:     -1    3   -1 -5.30372455E-02 -6.672E-03 -9.443E-03
:PTO013:      0    4    0 -1.01724553E-02 -1.407E-03 -1.700E-03
:PTO014:      0    2   -3  2.29624014E-02  3.198E-03  4.136E-03

:ENE  : ********** TOTAL ENERGY IN Ry =       -36944.09043581

       TOTAL FORCE IN mRy/a.u. = |F|     Fx             Fy             Fz     with/without FOR in case.in2
:FOR001:   1.ATOM         39.973          0.000          0.000        -39.973 partial forces
       TOTAL FORCE WITH RESPECT TO GLOBAL CARTESIAN COORDINATES:
:FCA001:   1.ATOM                         0.000        -39.973          0.000 partial forces
       TOTAL FORCE WITH RESPECT TO THE GLOBAL COORDINATE SYSTEM:
:FGL001:   1.ATOM                 0.000000000   -39.972668590     0.000000000 partial forces
 Flat Integration
 New Mode for Coulomb Integral
 Consistent 3/8+Simpson combinations
 Extension of core to zero
 LDM version in phi
 Fifth-order quadrature in outwin


            ---------
:ITE002:  2. ITERATION
            ---------

:NATO :    1 INDEPENDENT AND    2 TOTAL ATOMS IN UNITCELL
       SUBSTANCE: aU                                                          

       LATTICE                      = CXY 
:POT  : POTENTIAL OPTION EX_LDA EC_LDA VX_LDA VC_LDA
:LAT  : LATTICE CONSTANTS=  6.83209 13.86404 11.96912    1.571    1.571    1.571
:VOL  : UNIT CELL VOLUME =     566.85996
       MODE OF CALCULATION IS       = RELA
       NON-SPINPOLARIZED CALCULATION
:IFFT  : FFT-parameters:   60  108   96 Factor: 2.00


   CONVERGENCE PARAMETER FOR PSEUDOCHARGE: NCON=  9
   MAXIMAL VALUE OF RMT(JATOM)*ABSK(NKK) : RK  =27.59644


:VKCOUL :  VK-COUL convergence: 0.796E-07
       ATOMNUMBER=  1 Pr1        VCOUL-ZERO = -0.76896E-01
:EFG001:                        EFG         =     0.10742   *10**21  V / m**2
                               V20  TOT/SRF=    -0.01760    -0.02094
                               V22  TOT/SRF=    -0.09726     0.00321
                               V22M TOT/SRF=     0.00000     0.00000
                               V21  TOT/SRF=     0.00000     0.00000
                               V21M TOT/SRF=     0.00000     0.00000

             -0.08710    0.00000    0.00000       -0.08710    0.00000    0.00000
              0.00000    0.10742    0.00000        0.00000    0.10742    0.00000
              0.00000    0.00000   -0.02032        0.00000    0.00000   -0.02032

         MAIN DIRECTIONS OF THE EFG   1.0000  0.0000  0.0000
                                      0.0000  1.0000  0.0000
                                      0.0000  0.0000  1.0000
:ANG001:  ANGLE WITH OLD X-AXIS =         0.0

:ETA001:                         ASYMM. ETA =     0.62171


     HELLMANN-FEYNMAN-FORCE IN mRy/a.u. = |F|  Fx       Fy             Fz
:FHF001:   1.ATOM    225.228984621024      0.000000000000      0.000000000000   -225.228984621024

:FIT001: LUSE= 13 SIGMA OF V-XC FIT FOR ATOM  1  0.1296282E-05
:FIT001: LUSE= 13 SIGMA OF V-XC FIT FOR ATOM  1  0.1296282E-05
:DEN  : DENSITY INTEGRAL  =        -14134.15934925   (Ry)
       ELS_POTENTIAL_AT Z=0 and Z=0.5:   0.63456   0.63456
       ELS_POTENTIAL_AT Y=0 and Y=0.5:   0.07952   0.07952
:VZERO:v0,v0c,v0x   0.10393   0.63456  -0.53062 v5,v5c,v5x   0.10393   0.63456  -0.53062
:VZERY:v0,v0c,v0x  -0.63370   0.07952  -0.71322 v5,v5c,v5x  -0.63370   0.07952  -0.71322
:VZERX:v0,v0c,v0x  -1.04991  -0.36125  -0.68866 v5,v5c,v5x  -1.04991  -0.36125  -0.68866
:LMAX-WF:   10   Non-Spherical LMAX:   4

          ATOMIC SPHERE DEPENDENT PARAMETERS FOR ATOM  Pr1       
:e__0001: OVERALL ENERGY PARAMETER IS    0.2975
          OVERALL BASIS SET ON ATOM IS LAPW
:E0_0001: E( 0)=    0.2975
             APW+lo
:E0_0001: E( 0)=   -2.1782   E(BOTTOM)=   -2.815   E(TOP)=   -1.542  4  5   161
             LOCAL ORBITAL
:E1_0001: E( 1)=    0.6975
             APW+lo
:E1_0001: E( 1)=   -0.7089   E(BOTTOM)=   -1.667   E(TOP)=    0.250  3  4   198
             LOCAL ORBITAL
:E3_0001: E( 3)=    0.4807   E(BOTTOM)=    0.271   E(TOP)=    0.690  0  1   120
             APW+lo
:E2_0001: E( 2)=    0.2975   E(BOTTOM)=    0.074   E(TOP)= -200.000  2 -1   101
             APW+lo

       K=   0.06250   0.00000   0.06250            1
:RKM  : MATRIX SIZE   530LOs:  40  RKM= 8.48  WEIGHT= 4.00  PGR:    
       EIGENVALUES ARE:
:EIG00001:      -2.1424239   -2.1349453   -0.8510721   -0.8023525   -0.7915103
:EIG00006:      -0.7880502   -0.7838324   -0.7836062    0.2704607    0.4178287
:EIG00011:       0.4973913    0.4982093    0.4982439    0.5009499    0.5023751
:EIG00016:       0.5105227    0.5137281    0.5139024    0.5163545    0.5182621
:EIG00021:       0.5213035    0.5235059    0.5237552    0.5265784    0.5664051
:EIG00026:       0.5783691    0.6321997    0.6614364    0.6675242    0.7097531
:EIG00031:       0.7241913    0.7878771    0.8306846    0.8644741    1.0977910
:EIG00036:       1.1563041    1.2450784    1.2486223    1.3843135    1.4363797
:EIG00041:       1.4641619    1.5647630    1.6197548    1.6431427    1.7094786
:EIG00046:       1.7897326    1.7953658    1.8226507    1.8941306    1.9626631
 
       ********************************************************

:KPT   :      NUMBER OF K-POINTS:   288
:GAP (global)   :    0.0    Ry =     0.0   eV (metal)
         Bandranges (emin - emax) and occupancy:
:BAN00005:   5   -0.834813   -0.791510  2.00000000
:BAN00006:   6   -0.824460   -0.785780  2.00000000
:BAN00007:   7   -0.811386   -0.783832  2.00000000
:BAN00008:   8   -0.794802   -0.781492  2.00000000
:BAN00009:   9    0.266347    0.472992  2.00000000
:BAN00010:  10    0.369145    0.486517  2.00000000
:BAN00011:  11    0.459011    0.497391  2.00000000
:BAN00012:  12    0.487503    0.501732  2.00000000
:BAN00013:  13    0.494554    0.507523  1.52500988
:BAN00014:  14    0.498079    0.511188  0.47479097
:BAN00015:  15    0.501896    0.513313  0.00019915
:BAN00016:  16    0.505481    0.513871  0.00000000
:BAN00017:  17    0.508080    0.515167  0.00000000
:BAN00018:  18    0.509760    0.516072  0.00000000
:BAN00019:  19    0.511977    0.518800  0.00000000
:BAN00020:  20    0.512221    0.521729  0.00000000
        Energy to separate low and high energystates:    0.21635


:NOE  : NUMBER OF ELECTRONS          =   26.000

:FER  : F E R M I - ENERGY(TETRAH.M.)=   0.5019055494
:GMA  : POTENTIAL AND CHARGE CUT-OFF  12.00 Ry**.5

:POS001: ATOM   -1 X,Y,Z = 0.00000 0.89750 0.25000  MULT= 2  ZZ= 59.000  Pr1       

       LMMAX 16
       LM=   0 0  1 0  2 0  2 2  3 0  3 2  4 0  4 2  4 4  5 0  5 2  5 4  6 0  6 2  6 4  6 6

:CHA001: TOTAL VALENCE CHARGE INSIDE SPHERE   1 =   9.5383    (RMT=  2.3000 )
:PCS001: PARTIAL CHARGES SPHERE =  1 S,P,D,F,PX,PY,PZ,D-Z2,D-X2Y2,D-XY,D-XZ,D-YZ 
:QTL001: 1.9376 5.0225 0.4177 2.1604 1.6716 1.6722 1.6788 0.0748 0.0778 0.0954 0.0794 0.0903
        Q-s-low E-s-low   Q-p-low E-p-low   Q-d-low E-d-low   Q-f-low E-f-low
:EPL001:  1.8698 -2.1352    4.9676 -0.8109    0.0007 -0.8327    0.0002 -0.8424
        Q-s-hi  E-s-hi    Q-p-hi  E-p-hi    Q-d-hi  E-d-hi    Q-f-hi  E-f-hi 
:EPH001:  0.0678  0.4035    0.0549  0.4401    0.4170  0.4624    2.1602  0.4926

                      VXX         VYY         VZZ       UP TO R
:VZZ001:            -1.12587     3.37332    -2.24745       2.300

:CHA  : TOTAL VALENCE CHARGE INSIDE UNIT CELL =      26.000000

:SUM  : SUM OF EIGENVALUES =         -13.614662892


        1.ATOM      Pr1                  14 CORE STATES
       CORE-FORCE in mRy/a.u. = |F|      Fx             Fy             Fz
:FCO001:   1.ATOM    191.053538261296      0.000000000000      0.000000000000    191.053538261296

:1S 001: 1S               -3067.072162709 Ry
:2S 001: 2S                -492.837340517 Ry
:2PP001: 2P*               -465.935057687 Ry
:2P 001: 2P                -430.538220675 Ry
:3S 001: 3S                -105.934318470 Ry
:3PP001: 3P*                -94.471764530 Ry
:3P 001: 3P                 -87.464348910 Ry
:3DD001: 3D*                -67.390775635 Ry
:3D 001: 3D                 -65.879340095 Ry
:4S 001: 4S                 -20.619528774 Ry
:4PP001: 4P*                -16.326526679 Ry
:4P 001: 4P                 -14.799522021 Ry
:4DD001: 4D*                 -7.733221057 Ry
:4D 001: 4D                  -7.463957273 Ry
:CINT001 Core Integral Atom   1   45.998483

       DENSITY AT NUCLEUS
        JATOM        VALENCE       SEMI-CORE          CORE           TOTAL
:RTO001:   1      645.902018        0.000000   656821.030435   657466.932453
     
       CHARGES OF NEW CHARGE DENSITY
:NTO   : INTERSTITIAL CHARGE =     6.923338
:NPC   : PW Pseudocharge     =    16.781575
:NTO001: CHARGE SPHERE  1    =    55.536814

:NEC01: NUCLEAR AND ELECTRONIC CHARGE    118.00000   117.99697
     
       CHARGES OF OLD CHARGE DENSITY
:OTO   : INTERSTITIAL CHARGE =     7.046359
:OPC   : PW Pseudocharge     =    16.501470
:OTO001: CHARGE SPHERE  1    =    55.476820

:NEC02: NUCLEAR AND ELECTRONIC CHARGE    118.00000   118.00000
     
       CONVERGENCE TEST
:DTO001: DIFFERENCE IN SPHERE  1 =  0.1527795

:DIS  :  CHARGE DISTANCE       ( 0.1527795 for atom    1 spin 1)      0.1527795
 PW Mixed is          580
 
******************************************************
* MULTISECANT MIXING VER9 RELEASE 10.4.0              *
* Slow Mode, cautious                                *
* Fixed density scale                                *
* Regularization       1.000E-04                     *
* Step Trust Radius    0.75000                       *
* Trust Upper Limit    2.000E+00                     *
* Max Number of Memory Steps   12                    *
******************************************************
 
:PWTMP   4.6493E+02  1.9467E+02  5.6686E+02
:PLANE:  PW TOTAL      4.1640 DISTAN   1.11E-01  2.66E+00 %
:CHARG:  CLM/ATOM   1382.0476 DISTAN   7.08E-01  5.12E-02 %
 
Step History
        DMIX         DMIXT        Red     Pred      Trust     Lambda    MagRel    MagAbs     Beta
  1   3.5000E-02   3.5000E-02 -1.00E+00  1.00E+00 -1.00E+01  1.00E+00  3.50E-02  3.50E-02  1.00E+00
  2   2.5000E-02   2.5000E-02 -1.00E+00  1.00E+00 -1.00E+01  1.00E+00  2.50E-02  2.30E-02  1.00E+00
:JACOBIANS    4.121E-01   6.283E-03
  
:TRUST:  Step 2.97E-02  Charge 7.50E-02 (e) CTO  2.50E-01 (e) PW  3.50E-01 (e)
:DIRM :  MEMORY  1/12 SCALE   1.000
:MIX  :   PRATT  REGULARIZATION:  1.00E-04 GREED: 0.02968  Expand 1.19  0.0297                
     
       CHARGES OF MIXED CHARGE DENSITY
:CTO   : INTERSTITIAL CHARGE =     7.043672
:CPC   : PW Pseudocharge     =    16.885559
:CTO001: CHARGE SPHERE  1    =    55.478164

:NEC03: NUCLEAR AND ELECTRONIC CHARGE    118.00000   118.00000

PW CHANGE     H    K    L      Current       Change    Residue
:PTO001:      0    0    0  4.22136562E-02  6.728E-04  2.954E-04
:PTO003:      0    2    0  1.24879558E-02  3.345E-04  7.591E-04
:PTO004:     -1    1    0  6.26059312E-02  1.806E-03  1.434E-03
:PTO005:      0    2   -1 -7.32745866E-02 -2.146E-03 -1.250E-03
:PTO006:      0    0   -2 -3.80333182E-02 -1.113E-03 -4.199E-04
:PTO007:     -1    1   -1 -8.09938847E-02 -2.567E-03 -8.978E-04
:PTO008:      0    2   -2 -1.39198198E-02 -5.363E-04 -3.324E-04
:PTO009:     -1    1   -2 -7.13183070E-02 -2.953E-03 -2.637E-03
:PTO011:     -1    3    0 -1.20941521E-02 -5.850E-04 -2.346E-04
:PTO012:     -1    3   -1 -5.59931528E-02 -2.956E-03 -2.682E-03
:PTO013:      0    4    0 -1.07958216E-02 -6.234E-04 -2.725E-04
:PTO014:      0    2   -3  2.43791282E-02  1.417E-03  9.517E-04

:ENE  : ********** TOTAL ENERGY IN Ry =       -36944.08908441

       TOTAL FORCE IN mRy/a.u. = |F|     Fx             Fy             Fz     with/without FOR in case.in2
:FOR001:   1.ATOM         34.175          0.000          0.000        -34.175 partial forces
       TOTAL FORCE WITH RESPECT TO GLOBAL CARTESIAN COORDINATES:
:FCA001:   1.ATOM                         0.000        -34.175          0.000 partial forces
       TOTAL FORCE WITH RESPECT TO THE GLOBAL COORDINATE SYSTEM:
:FGL001:   1.ATOM                 0.000000000   -34.175446360     0.000000000 partial forces
 Flat Integration
 New Mode for Coulomb Integral
 Consistent 3/8+Simpson combinations
 Extension of core to zero
 LDM version in phi
 Fifth-order quadrature in outwin


            ---------
:ITE003:  3. ITERATION
            ---------

:NATO :    1 INDEPENDENT AND    2 TOTAL ATOMS IN UNITCELL
       SUBSTANCE: aU                                                          

       LATTICE                      = CXY 
:POT  : POTENTIAL OPTION EX_LDA EC_LDA VX_LDA VC_LDA
:LAT  : LATTICE CONSTANTS=  6.83209 13.86404 11.96912    1.571    1.571    1.571
:VOL  : UNIT CELL VOLUME =     566.85996
       MODE OF CALCULATION IS       = RELA
       NON-SPINPOLARIZED CALCULATION
:IFFT  : FFT-parameters:   60  108   96 Factor: 2.00


   CONVERGENCE PARAMETER FOR PSEUDOCHARGE: NCON=  9
   MAXIMAL VALUE OF RMT(JATOM)*ABSK(NKK) : RK  =27.59644


:VKCOUL :  VK-COUL convergence: 0.810E-07
       ATOMNUMBER=  1 Pr1        VCOUL-ZERO = -0.75826E-01
:EFG001:                        EFG         =     0.15217   *10**21  V / m**2
                               V20  TOT/SRF=    -0.01810    -0.02056
                               V22  TOT/SRF=    -0.14173     0.00290
                               V22M TOT/SRF=     0.00000     0.00000
                               V21  TOT/SRF=     0.00000     0.00000
                               V21M TOT/SRF=     0.00000     0.00000

             -0.13128    0.00000    0.00000       -0.13128    0.00000    0.00000
              0.00000    0.15217    0.00000        0.00000    0.15217    0.00000
              0.00000    0.00000   -0.02090        0.00000    0.00000   -0.02090

         MAIN DIRECTIONS OF THE EFG   1.0000  0.0000  0.0000
                                      0.0000  1.0000  0.0000
                                      0.0000  0.0000  1.0000
:ANG001:  ANGLE WITH OLD X-AXIS =         0.0

:ETA001:                         ASYMM. ETA =     0.72537


     HELLMANN-FEYNMAN-FORCE IN mRy/a.u. = |F|  Fx       Fy             Fz
:FHF001:   1.ATOM    228.149483832314      0.000000000000      0.000000000000   -228.149483832314

:FIT001: LUSE= 13 SIGMA OF V-XC FIT FOR ATOM  1  0.1297481E-05
:FIT001: LUSE= 13 SIGMA OF V-XC FIT FOR ATOM  1  0.1297481E-05
:DEN  : DENSITY INTEGRAL  =        -14134.53223068   (Ry)
       ELS_POTENTIAL_AT Z=0 and Z=0.5:   0.63545   0.63545
       ELS_POTENTIAL_AT Y=0 and Y=0.5:   0.08083   0.08083
:VZERO:v0,v0c,v0x   0.10491   0.63545  -0.53053 v5,v5c,v5x   0.10491   0.63545  -0.53053
:VZERY:v0,v0c,v0x  -0.63264   0.08083  -0.71347 v5,v5c,v5x  -0.63264   0.08083  -0.71347
:VZERX:v0,v0c,v0x  -1.05347  -0.36305  -0.69042 v5,v5c,v5x  -1.05347  -0.36305  -0.69042
:LMAX-WF:   10   Non-Spherical LMAX:   4

          ATOMIC SPHERE DEPENDENT PARAMETERS FOR ATOM  Pr1       
:e__0001: OVERALL ENERGY PARAMETER IS    0.3004
          OVERALL BASIS SET ON ATOM IS LAPW
:E0_0001: E( 0)=    0.3004
             APW+lo
:E0_0001: E( 0)=   -2.1763   E(BOTTOM)=   -2.813   E(TOP)=   -1.540  4  5   162
             LOCAL ORBITAL
:E1_0001: E( 1)=    0.7004
             APW+lo
:E1_0001: E( 1)=   -0.7070   E(BOTTOM)=   -1.666   E(TOP)=    0.252  3  4   192
             LOCAL ORBITAL
:E3_0001: E( 3)=    0.4833   E(BOTTOM)=    0.274   E(TOP)=    0.693  0  1   122
             APW+lo
:E2_0001: E( 2)=    0.3004   E(BOTTOM)=    0.075   E(TOP)= -200.000  2 -1    97
             APW+lo

       K=   0.06250   0.00000   0.06250            1
:RKM  : MATRIX SIZE   530LOs:  40  RKM= 8.48  WEIGHT= 4.00  PGR:    
       EIGENVALUES ARE:
:EIG00001:      -2.1405455   -2.1330616   -0.8493059   -0.8008022   -0.7899512
:EIG00006:      -0.7863962   -0.7820078   -0.7819522    0.2714566    0.4188837
:EIG00011:       0.4997836    0.5007952    0.5008259    0.5033435    0.5048811
:EIG00016:       0.5131831    0.5163276    0.5166046    0.5189807    0.5208383
:EIG00021:       0.5239266    0.5260477    0.5261819    0.5293176    0.5678610
:EIG00026:       0.5796091    0.6334616    0.6626369    0.6688322    0.7109185
:EIG00031:       0.7253840    0.7892048    0.8320307    0.8658478    1.0991076
:EIG00036:       1.1573636    1.2461135    1.2496720    1.3853492    1.4374806
:EIG00041:       1.4652866    1.5659121    1.6208321    1.6442864    1.7106654
:EIG00046:       1.7908546    1.7964286    1.8237396    1.8952224    1.9638987
 
       ********************************************************

:KPT   :      NUMBER OF K-POINTS:   288
:GAP (global)   :    0.0    Ry =     0.0   eV (metal)
         Bandranges (emin - emax) and occupancy:
:BAN00004:   4   -0.839178   -0.800802  2.00000000
:BAN00005:   5   -0.833212   -0.789951  2.00000000
:BAN00006:   6   -0.822828   -0.784125  2.00000000
:BAN00007:   7   -0.809838   -0.782008  2.00000000
:BAN00008:   8   -0.793126   -0.779836  2.00000000
:BAN00009:   9    0.267342    0.474582  2.00000000
:BAN00010:  10    0.370159    0.488366  2.00000000
:BAN00011:  11    0.460308    0.499784  2.00000000
:BAN00012:  12    0.489387    0.504043  2.00000000
:BAN00013:  13    0.496705    0.510160  1.52402547
:BAN00014:  14    0.500535    0.513818  0.47597453
:BAN00015:  15    0.504451    0.515893  0.00000000
:BAN00016:  16    0.508095    0.516396  0.00000000
:BAN00017:  17    0.510677    0.517678  0.00000000
:BAN00018:  18    0.512288    0.518695  0.00000000
:BAN00019:  19    0.514482    0.521390  0.00000000
        Energy to separate low and high energystates:    0.21734


:NOE  : NUMBER OF ELECTRONS          =   26.000

:FER  : F E R M I - ENERGY(TETRAH.M.)=   0.5043783063
:GMA  : POTENTIAL AND CHARGE CUT-OFF  12.00 Ry**.5

:POS001: ATOM   -1 X,Y,Z = 0.00000 0.89750 0.25000  MULT= 2  ZZ= 59.000  Pr1       

       LMMAX 16
       LM=   0 0  1 0  2 0  2 2  3 0  3 2  4 0  4 2  4 4  5 0  5 2  5 4  6 0  6 2  6 4  6 6

:CHA001: TOTAL VALENCE CHARGE INSIDE SPHERE   1 =   9.5126    (RMT=  2.3000 )
:PCS001: PARTIAL CHARGES SPHERE =  1 S,P,D,F,PX,PY,PZ,D-Z2,D-X2Y2,D-XY,D-XZ,D-YZ 
:QTL001: 1.9377 5.0228 0.4249 2.1270 1.6715 1.6723 1.6790 0.0765 0.0792 0.0964 0.0807 0.0922
        Q-s-low E-s-low   Q-p-low E-p-low   Q-d-low E-d-low   Q-f-low E-f-low
:EPL001:  1.8697 -2.1333    4.9669 -0.8092    0.0007 -0.8307    0.0002 -0.8405
        Q-s-hi  E-s-hi    Q-p-hi  E-p-hi    Q-d-hi  E-d-hi    Q-f-hi  E-f-hi 
:EPH001:  0.0680  0.4048    0.0559  0.4422    0.4242  0.4644    2.1269  0.4949

                      VXX         VYY         VZZ       UP TO R
:VZZ001:             0.09774     3.16810    -3.26584       2.300

:CHA  : TOTAL VALENCE CHARGE INSIDE UNIT CELL =      26.000000

:SUM  : SUM OF EIGENVALUES =         -13.569574060


        1.ATOM      Pr1                  14 CORE STATES
       CORE-FORCE in mRy/a.u. = |F|      Fx             Fy             Fz
:FCO001:   1.ATOM    196.536964793108      0.000000000000      0.000000000000    196.536964793108

:1S 001: 1S               -3067.068622322 Ry
:2S 001: 2S                -492.833598817 Ry
:2PP001: 2P*               -465.931346247 Ry
:2P 001: 2P                -430.534496611 Ry
:3S 001: 3S                -105.930456705 Ry
:3PP001: 3P*                -94.467906439 Ry
:3P 001: 3P                 -87.460492895 Ry
:3DD001: 3D*                -67.386919562 Ry
:3D 001: 3D                 -65.875483566 Ry
:4S 001: 4S                 -20.616171440 Ry
:4PP001: 4P*                -16.323209264 Ry
:4P 001: 4P                 -14.796263818 Ry
:4DD001: 4D*                 -7.730070477 Ry
:4D 001: 4D                  -7.460827048 Ry
:CINT001 Core Integral Atom   1   45.998482

       DENSITY AT NUCLEUS
        JATOM        VALENCE       SEMI-CORE          CORE           TOTAL
:RTO001:   1      645.867030        0.000000   656820.958097   657466.825127
     
       CHARGES OF NEW CHARGE DENSITY
:NTO   : INTERSTITIAL CHARGE =     6.974794
:NPC   : PW Pseudocharge     =    16.791714
:NTO001: CHARGE SPHERE  1    =    55.511084

:NEC01: NUCLEAR AND ELECTRONIC CHARGE    118.00000   117.99696
     
       CHARGES OF OLD CHARGE DENSITY
:OTO   : INTERSTITIAL CHARGE =     7.043672
:OPC   : PW Pseudocharge     =    16.885559
:OTO001: CHARGE SPHERE  1    =    55.478164

:NEC02: NUCLEAR AND ELECTRONIC CHARGE    118.00000   118.00000
     
       CONVERGENCE TEST
:DTO001: DIFFERENCE IN SPHERE  1 =  0.1250694

:DIS  :  CHARGE DISTANCE       ( 0.1250694 for atom    1 spin 1)      0.1250694
 PW Mixed is          580
 
******************************************************
* MULTISECANT MIXING VER9 RELEASE 10.4.0              *
* Slow Mode, cautious                                *
* Fixed density scale                                *
* Regularization       1.000E-04                     *
* Step Trust Radius    0.75000                       *
* Trust Upper Limit    2.000E+00                     *
* Max Number of Memory Steps   12                    *
******************************************************
 
:PWTMP   4.6493E+02  1.9467E+02  5.6686E+02
:PLANE:  PW TOTAL      4.3057 DISTAN   1.25E-01  2.89E+00 %
:CHARG:  CLM/ATOM   1382.0464 DISTAN   6.80E-01  4.92E-02 %
 
Step History
        DMIX         DMIXT        Red     Pred      Trust     Lambda    MagRel    MagAbs     Beta
  1   3.5000E-02   3.5000E-02 -1.00E+00  1.00E+00 -1.00E+01  1.00E+00  3.50E-02  3.50E-02  1.00E+00
  2   2.5000E-02   2.5000E-02  7.77E-01  1.00E+00 -1.00E+01  1.00E+00  2.50E-02  2.30E-02  1.00E+00
  3   2.9676E-02   2.9676E-02 -1.00E+00  1.00E+00 -1.00E+01  1.00E+00  2.97E-02  2.13E-02  1.00E+00
:JACOBIANS    6.212E-01   9.356E-03
  
:NORMS:  1/Froebius, Min, Max, Used   0.9118E+00  0.4214E+00  0.9119E+00  0.9119E+00
:INFO :  Number of Memory Steps    2 Skipping    0
:INFO :  SLambda=    0.0505978727  Max    0.0505978727
:PREDicted Charge, CTotal, PW Trust    1.411E-03   2.823E-03   1.375E-01
:PREDicted DMix, Beta, BLim   3.7569E-02  1.0151E+00  2.4777E-01

Eigenvalues, unscaled except for SY+YY
   #     SY Real        SY Imag          SS             YY         SY+YY Real      SY+YY Imag
   1  -2.220446E-16   0.000000E+00   1.662891E+00   1.999641E+00   3.594463E-04   0.000000E+00
   2   1.677809E+00   0.000000E+00   1.110223E-16   3.593797E-04   2.084534E+00   0.000000E+00
 
:INFO :  Singular value  2.085E+00 Weight  1.000E+00 Projection  1.301E-04
:INFO :  Singular value  3.594E-04 Weight  7.637E-01 Projection  3.050E+00
:RANK :  ACTIVE   1.76/2  =  88.18 % ; YY RANK   1.76/2  =  88.18 %
 
:BLIM :  VZERO Control Off
:TRUST:  Step 1.93E-01  Charge 7.50E-02 (e) CTO  2.50E-01 (e) PW  3.50E-01 (e)
:DIRM :  MEMORY  2/12 SCALE   1.000 RED  0.96 PRED  1.00 NEXT  0.99 
:TRAVE:  Charge 1.15E-03 (e) CTO  2.30E-03 (e) PW  7.35E-04 (e)
:DIRP :  |MSR1|= 2.743E-03 |PRATT|= 1.245E-01 ANGLE=  51.3 DEGREES
:DIRQ :  |MSR1|= 2.292E-02 |PRATT|= 6.795E-01 ANGLE=   4.9 DEGREES
:DIRT :  |MSR1|= 2.308E-02 |PRATT|= 6.909E-01 ANGLE=   9.4 DEGREES
:MIX  :   MSD1   REGULARIZATION:  2.00E-04 GREED: 0.03370  Newton 1.00  0.0334                
     
       CHARGES OF MIXED CHARGE DENSITY
:CTO   : INTERSTITIAL CHARGE =     7.041372
:CPC   : PW Pseudocharge     =    16.889999
:CTO001: CHARGE SPHERE  1    =    55.479314

:NEC03: NUCLEAR AND ELECTRONIC CHARGE    118.00000   118.00000

PW CHANGE     H    K    L      Current       Change    Residue
:PTO001:      0    0    0  4.22174301E-02  3.774E-06 -2.688E-04
:PTO003:      0    2    0  1.25085646E-02  2.061E-05  3.985E-04
:PTO004:     -1    1    0  6.26266080E-02  2.068E-05 -3.915E-04
:PTO005:      0    2   -1 -7.32849314E-02 -1.034E-05  9.118E-04
:PTO006:      0    0   -2 -3.80319974E-02  1.321E-06  6.730E-04
:PTO007:     -1    1   -1 -8.09880158E-02  5.869E-06  1.671E-03
:PTO008:      0    2   -2 -1.39229555E-02 -3.136E-06  2.113E-04
:PTO009:     -1    1   -2 -7.13643767E-02 -4.607E-05  3.108E-04
:PTO011:     -1    3    0 -1.20941624E-02 -1.029E-08  3.307E-04
:PTO012:     -1    3   -1 -5.60397611E-02 -4.661E-05  3.122E-04
:PTO013:      0    4    0 -1.07952428E-02  5.788E-07  3.613E-04
:PTO014:      0    2   -3  2.43905492E-02  1.142E-05 -4.599E-04

:ENE  : ********** TOTAL ENERGY IN Ry =       -36944.08872395

       TOTAL FORCE IN mRy/a.u. = |F|     Fx             Fy             Fz     with/without FOR in case.in2
:FOR001:   1.ATOM         31.613          0.000          0.000        -31.613 partial forces
       TOTAL FORCE WITH RESPECT TO GLOBAL CARTESIAN COORDINATES:
:FCA001:   1.ATOM                         0.000        -31.613          0.000 partial forces
       TOTAL FORCE WITH RESPECT TO THE GLOBAL COORDINATE SYSTEM:
:FGL001:   1.ATOM                 0.000000000   -31.612519039     0.000000000 partial forces
 Flat Integration
 New Mode for Coulomb Integral
 Consistent 3/8+Simpson combinations
 Extension of core to zero
 LDM version in phi
 Fifth-order quadrature in outwin


            ---------
:ITE004:  4. ITERATION
            ---------

:NATO :    1 INDEPENDENT AND    2 TOTAL ATOMS IN UNITCELL
       SUBSTANCE: aU                                                          

       LATTICE                      = CXY 
:POT  : POTENTIAL OPTION EX_LDA EC_LDA VX_LDA VC_LDA
:LAT  : LATTICE CONSTANTS=  6.83209 13.86404 11.96912    1.571    1.571    1.571
:VOL  : UNIT CELL VOLUME =     566.85996
       MODE OF CALCULATION IS       = RELA
       NON-SPINPOLARIZED CALCULATION
:IFFT  : FFT-parameters:   60  108   96 Factor: 2.00


   CONVERGENCE PARAMETER FOR PSEUDOCHARGE: NCON=  9
   MAXIMAL VALUE OF RMT(JATOM)*ABSK(NKK) : RK  =27.59644


:VKCOUL :  VK-COUL convergence: 0.818E-07
       ATOMNUMBER=  1 Pr1        VCOUL-ZERO = -0.75794E-01
:EFG001:                        EFG         =     0.27867   *10**21  V / m**2
                               V20  TOT/SRF=    -0.12567    -0.01989
                               V22  TOT/SRF=    -0.20612     0.00229
                               V22M TOT/SRF=     0.00000     0.00000
                               V21  TOT/SRF=     0.00000     0.00000
                               V21M TOT/SRF=     0.00000     0.00000

             -0.13356    0.00000    0.00000       -0.13356    0.00000    0.00000
              0.00000    0.27867    0.00000        0.00000    0.27867    0.00000
              0.00000    0.00000   -0.14511        0.00000    0.00000   -0.14511

         MAIN DIRECTIONS OF THE EFG   1.0000  0.0000  0.0000
                                      0.0000  1.0000  0.0000
                                      0.0000  0.0000  1.0000
:ANG001:  ANGLE WITH OLD X-AXIS =         0.0

:ETA001:                         ASYMM. ETA =     0.04145


     HELLMANN-FEYNMAN-FORCE IN mRy/a.u. = |F|  Fx       Fy             Fz
:FHF001:   1.ATOM    238.818794711347      0.000000000000      0.000000000000   -238.818794711347

:FIT001: LUSE= 13 SIGMA OF V-XC FIT FOR ATOM  1  0.1456732E-05
:FIT001: LUSE= 13 SIGMA OF V-XC FIT FOR ATOM  1  0.1456732E-05
:DEN  : DENSITY INTEGRAL  =        -14134.72573858   (Ry)
       ELS_POTENTIAL_AT Z=0 and Z=0.5:   0.63561   0.63561
       ELS_POTENTIAL_AT Y=0 and Y=0.5:   0.08162   0.08162
:VZERO:v0,v0c,v0x   0.10501   0.63561  -0.53060 v5,v5c,v5x   0.10501   0.63561  -0.53060
:VZERY:v0,v0c,v0x  -0.63198   0.08162  -0.71360 v5,v5c,v5x  -0.63198   0.08162  -0.71360
:VZERX:v0,v0c,v0x  -1.05348  -0.36300  -0.69048 v5,v5c,v5x  -1.05348  -0.36300  -0.69048
:LMAX-WF:   10   Non-Spherical LMAX:   4

          ATOMIC SPHERE DEPENDENT PARAMETERS FOR ATOM  Pr1       
:e__0001: OVERALL ENERGY PARAMETER IS    0.3031
          OVERALL BASIS SET ON ATOM IS LAPW
:E0_0001: E( 0)=    0.3031
             APW+lo
:E0_0001: E( 0)=   -2.1756   E(BOTTOM)=   -2.812   E(TOP)=   -1.539  4  5   162
             LOCAL ORBITAL
:E1_0001: E( 1)=    0.7031
             APW+lo
:E1_0001: E( 1)=   -0.7064   E(BOTTOM)=   -1.665   E(TOP)=    0.252  3  4   197
             LOCAL ORBITAL
:E3_0001: E( 3)=    0.4847   E(BOTTOM)=    0.275   E(TOP)=    0.694  0  1   121
             APW+lo
:E2_0001: E( 2)=    0.3031   E(BOTTOM)=    0.075   E(TOP)= -200.000  2 -1    98
             APW+lo

       K=   0.06250   0.00000   0.06250            1
:RKM  : MATRIX SIZE   530LOs:  40  RKM= 8.48  WEIGHT= 4.00  PGR:    
       EIGENVALUES ARE:
:EIG00001:      -2.1398458   -2.1323633   -0.8485461   -0.8004485   -0.7895889
:EIG00006:      -0.7859341   -0.7814974   -0.7812344    0.2715221    0.4189500
:EIG00011:       0.5010136    0.5021468    0.5023475    0.5044537    0.5062462
:EIG00016:       0.5146100    0.5176790    0.5180841    0.5203499    0.5221907
:EIG00021:       0.5252200    0.5272338    0.5273604    0.5309329    0.5682435
:EIG00026:       0.5798258    0.6337539    0.6628091    0.6692160    0.7110195
:EIG00031:       0.7255149    0.7895478    0.8323517    0.8662111    1.0994176
:EIG00036:       1.1574300    1.2461380    1.2497522    1.3853976    1.4377240
:EIG00041:       1.4655015    1.5661666    1.6208603    1.6445120    1.7108549
:EIG00046:       1.7910269    1.7965545    1.8238154    1.8953614    1.9642012
 
       ********************************************************

:KPT   :      NUMBER OF K-POINTS:   288
:GAP (global)   :    0.0    Ry =     0.0   eV (metal)
         Bandranges (emin - emax) and occupancy:
:BAN00004:   4   -0.838753   -0.800449  2.00000000
:BAN00005:   5   -0.832789   -0.789589  2.00000000
:BAN00006:   6   -0.822323   -0.783662  2.00000000
:BAN00007:   7   -0.809475   -0.781421  2.00000000
:BAN00008:   8   -0.792550   -0.779380  2.00000000
:BAN00009:   9    0.267406    0.475222  2.00000000
:BAN00010:  10    0.370217    0.489181  2.00000000
:BAN00011:  11    0.460630    0.501014  2.00000000
:BAN00012:  12    0.490216    0.504921  2.00000000
:BAN00013:  13    0.497621    0.511643  1.52456337
:BAN00014:  14    0.501872    0.515261  0.47543663
:BAN00015:  15    0.505920    0.517362  0.00000000
:BAN00016:  16    0.509309    0.517713  0.00000000
:BAN00017:  17    0.512142    0.518943  0.00000000
:BAN00018:  18    0.513581    0.520109  0.00000000
:BAN00019:  19    0.515708    0.522757  0.00000000
        Energy to separate low and high energystates:    0.21741


:NOE  : NUMBER OF ELECTRONS          =   26.000

:FER  : F E R M I - ENERGY(TETRAH.M.)=   0.5056662679
:GMA  : POTENTIAL AND CHARGE CUT-OFF  12.00 Ry**.5

:POS001: ATOM   -1 X,Y,Z = 0.00000 0.89750 0.25000  MULT= 2  ZZ= 59.000  Pr1       

       LMMAX 16
       LM=   0 0  1 0  2 0  2 2  3 0  3 2  4 0  4 2  4 4  5 0  5 2  5 4  6 0  6 2  6 4  6 6

:CHA001: TOTAL VALENCE CHARGE INSIDE SPHERE   1 =   9.4915    (RMT=  2.3000 )
:PCS001: PARTIAL CHARGES SPHERE =  1 S,P,D,F,PX,PY,PZ,D-Z2,D-X2Y2,D-XY,D-XZ,D-YZ 
:QTL001: 1.9378 5.0232 0.4306 2.0998 1.6715 1.6724 1.6793 0.0779 0.0800 0.0972 0.0817 0.0938
        Q-s-low E-s-low   Q-p-low E-p-low   Q-d-low E-d-low   Q-f-low E-f-low
:EPL001:  1.8696 -2.1326    4.9665 -0.8087    0.0007 -0.8297    0.0002 -0.8394
        Q-s-hi  E-s-hi    Q-p-hi  E-p-hi    Q-d-hi  E-d-hi    Q-f-hi  E-f-hi 
:EPH001:  0.0682  0.4052    0.0567  0.4432    0.4299  0.4652    2.0997  0.4961

                      VXX         VYY         VZZ       UP TO R
:VZZ001:             1.83847     2.49442    -4.33289       2.300

:CHA  : TOTAL VALENCE CHARGE INSIDE UNIT CELL =      26.000000

:SUM  : SUM OF EIGENVALUES =         -13.553568979


        1.ATOM      Pr1                  14 CORE STATES
       CORE-FORCE in mRy/a.u. = |F|      Fx             Fy             Fz
:FCO001:   1.ATOM    213.641064579737      0.000000000000      0.000000000000    213.641064579737

:1S 001: 1S               -3067.067531564 Ry
:2S 001: 2S                -492.831903723 Ry
:2PP001: 2P*               -465.929742911 Ry
:2P 001: 2P                -430.532854939 Ry
:3S 001: 3S                -105.928227150 Ry
:3PP001: 3P*                -94.465702915 Ry
:3P 001: 3P                 -87.458269433 Ry
:3DD001: 3D*                -67.384745599 Ry
:3D 001: 3D                 -65.873301562 Ry
:4S 001: 4S                 -20.614143651 Ry
:4PP001: 4P*                -16.321220129 Ry
:4P 001: 4P                 -14.794326350 Ry
:4DD001: 4D*                 -7.728232572 Ry
:4D 001: 4D                  -7.459007159 Ry
:CINT001 Core Integral Atom   1   45.998480

       DENSITY AT NUCLEUS
        JATOM        VALENCE       SEMI-CORE          CORE           TOTAL
:RTO001:   1      645.824000        0.000000   656821.014198   657466.838198
     
       CHARGES OF NEW CHARGE DENSITY
:NTO   : INTERSTITIAL CHARGE =     7.016938
:NPC   : PW Pseudocharge     =    16.800208
:NTO001: CHARGE SPHERE  1    =    55.490011

:NEC01: NUCLEAR AND ELECTRONIC CHARGE    118.00000   117.99696
     
       CHARGES OF OLD CHARGE DENSITY
:OTO   : INTERSTITIAL CHARGE =     7.041372
:OPC   : PW Pseudocharge     =    16.889999
:OTO001: CHARGE SPHERE  1    =    55.479314

:NEC02: NUCLEAR AND ELECTRONIC CHARGE    118.00000   118.00000
     
       CONVERGENCE TEST
:DTO001: DIFFERENCE IN SPHERE  1 =  0.1068527

:DIS  :  CHARGE DISTANCE       ( 0.1068527 for atom    1 spin 1)      0.1068527
 PW Mixed is          580
 
******************************************************
* MULTISECANT MIXING VER9 RELEASE 10.4.0              *
* Slow Mode, cautious                                *
* Fixed density scale                                *
* Regularization       1.000E-04                     *
* Step Trust Radius    0.75000                       *
* Trust Upper Limit    2.000E+00                     *
* Max Number of Memory Steps   12                    *
******************************************************
 
:PWTMP   4.6493E+02  1.9467E+02  5.6686E+02
:PLANE:  PW TOTAL      4.3065 DISTAN   1.22E-01  2.84E+00 %
:CHARG:  CLM/ATOM   1382.0424 DISTAN   6.40E-01  4.63E-02 %
 
Step History
        DMIX         DMIXT        Red     Pred      Trust     Lambda    MagRel    MagAbs     Beta
  1   3.5000E-02   3.5000E-02 -1.00E+00  1.00E+00 -1.00E+01  1.00E+00  3.50E-02  3.50E-02  1.00E+00
  2   2.5000E-02   2.5000E-02  7.77E-01  1.00E+00 -1.00E+01  1.00E+00  2.50E-02  2.30E-02  1.00E+00
  3   2.9676E-02   2.9676E-02  9.64E-01  1.00E+00 -1.00E+01  5.06E-02  2.97E-02  2.13E-02  1.00E+00
  4   3.3704E-02   3.3704E-02 -1.00E+00  9.94E-01  1.93E-01  1.00E+00  3.34E-02  2.31E-02  1.00E+00
:JACOBIANS    7.984E-01   7.893E-02
  
:NORMS:  1/Froebius, Min, Max, Used   0.6681E+00  0.3766E+00  0.9824E+00  0.7192E+00
:INFO :  Number of Memory Steps    3 Skipping    0
:INFO :  SLambda=    1.5414089846  Max    1.5414089846
:PREDicted Charge, CTotal, PW Trust    6.673E-03   1.335E-02   9.821E-02
:PREDicted DMix, Beta, BLim   1.8061E-01  3.4142E+00  2.9367E-01

Eigenvalues, unscaled except for SY+YY
   #     SY Real        SY Imag          SS             YY         SY+YY Real      SY+YY Imag
   1   1.314270E+00   0.000000E+00   1.271544E+00   2.458462E+00   4.291214E+00   0.000000E+00
   2  -1.402558E-15   0.000000E+00   6.752859E-02   5.413061E-01   2.369519E-04   0.000000E+00
   3   1.324830E-01   0.000000E+00  -6.821877E-17   2.323831E-04   9.385880E-01   0.000000E+00
 
:INFO :  Singular value  4.291E+00 Weight  1.000E+00 Projection -4.237E-02
:INFO :  Singular value  9.386E-01 Weight  1.000E+00 Projection -5.083E-01
:INFO :  Singular value  2.370E-04 Weight  4.816E-01 Projection -7.303E+00
:RANK :  ACTIVE   2.48/3  =  82.72 % ; YY RANK   2.47/3  =  82.40 %
 
:BLIM :  VZERO Control Off
:TRUST:  Step 2.03E-01  Charge 7.50E-02 (e) CTO  2.50E-01 (e) PW  3.50E-01 (e)
:DTRUS:  Lambda    9.687E-01 Increment    7.276E-12 Iterations   116 DMIX    5.306E-02
:INFOA:  Angle SubSpace to MSR1     20.31
:DIRM :  MEMORY  3/12 SCALE   1.000 RED  0.94 PRED  0.99 NEXT  0.89 
:INFO :  Limited by Atoms F by Step T

:TRAVE:  Charge 6.44E-04 (e) CTO  1.29E-03 (e) PW  1.20E-02 (e)
:DIRP :  |MSR1|= 4.431E-02 |PRATT|= 1.223E-01 ANGLE=  19.2 DEGREES
:DIRQ :  |MSR1|= 1.244E-01 |PRATT|= 6.401E-01 ANGLE=   6.4 DEGREES
:DIRT :  |MSR1|= 1.321E-01 |PRATT|= 6.517E-01 ANGLE=  11.7 DEGREES
:MIX  :   MSE1   REGULARIZATION:  2.46E-04 GREED: 0.08426  LMStep 0.65  0.2027 Step           
     
       CHARGES OF MIXED CHARGE DENSITY
:CTO   : INTERSTITIAL CHARGE =     7.041097
:CPC   : PW Pseudocharge     =    16.822739
:CTO001: CHARGE SPHERE  1    =    55.479451

:NEC03: NUCLEAR AND ELECTRONIC CHARGE    118.00000   118.00000

PW CHANGE     H    K    L      Current       Change    Residue
:PTO001:      0    0    0  4.20982927E-02 -1.191E-04 -1.833E-04
:PTO003:      0    2    0  1.25248972E-02  1.633E-05  3.150E-04
:PTO004:     -1    1    0  6.22807925E-02 -3.458E-04 -4.595E-04
:PTO005:      0    2   -1 -7.28125804E-02  4.724E-04  9.227E-04
:PTO006:      0    0   -2 -3.77586345E-02  2.734E-04  6.394E-04
:PTO007:     -1    1   -1 -8.03271392E-02  6.609E-04  1.643E-03
:PTO008:      0    2   -2 -1.38023136E-02  1.206E-04  2.316E-04
:PTO009:     -1    1   -2 -7.09034822E-02  4.609E-04  3.366E-04
:PTO011:     -1    3    0 -1.19622739E-02  1.319E-04  2.897E-04
:PTO012:     -1    3   -1 -5.55594297E-02  4.803E-04  4.100E-04
:PTO013:      0    4    0 -1.06361927E-02  1.591E-04  3.635E-04
:PTO014:      0    2   -3  2.41097224E-02 -2.808E-04 -4.553E-04

:ENE  : ********** TOTAL ENERGY IN Ry =       -36944.08833153

       TOTAL FORCE IN mRy/a.u. = |F|     Fx             Fy             Fz     with/without FOR in case.in2
:FOR001:   1.ATOM         25.178          0.000          0.000        -25.178 partial forces
       TOTAL FORCE WITH RESPECT TO GLOBAL CARTESIAN COORDINATES:
:FCA001:   1.ATOM                         0.000        -25.178          0.000 partial forces
       TOTAL FORCE WITH RESPECT TO THE GLOBAL COORDINATE SYSTEM:
:FGL001:   1.ATOM                 0.000000000   -25.177730132     0.000000000 partial forces
 Flat Integration
 New Mode for Coulomb Integral
 Consistent 3/8+Simpson combinations
 Extension of core to zero
 LDM version in phi
 Fifth-order quadrature in outwin


            ---------
:ITE005:  5. ITERATION
            ---------

:NATO :    1 INDEPENDENT AND    2 TOTAL ATOMS IN UNITCELL
       SUBSTANCE: aU                                                          

       LATTICE                      = CXY 
:POT  : POTENTIAL OPTION EX_LDA EC_LDA VX_LDA VC_LDA
:LAT  : LATTICE CONSTANTS=  6.83209 13.86404 11.96912    1.571    1.571    1.571
:VOL  : UNIT CELL VOLUME =     566.85996
       MODE OF CALCULATION IS       = RELA
       NON-SPINPOLARIZED CALCULATION
:IFFT  : FFT-parameters:   60  108   96 Factor: 2.00


   CONVERGENCE PARAMETER FOR PSEUDOCHARGE: NCON=  9
   MAXIMAL VALUE OF RMT(JATOM)*ABSK(NKK) : RK  =27.59644


:VKCOUL :  VK-COUL convergence: 0.973E-07
       ATOMNUMBER=  1 Pr1        VCOUL-ZERO = -0.76561E-01
:EFG001:                        EFG         =    -1.20941   *10**21  V / m**2
                               V20  TOT/SRF=    -1.04738    -0.01758
                               V22  TOT/SRF=    -0.20682     0.00072
                               V22M TOT/SRF=     0.00000     0.00000
                               V21  TOT/SRF=     0.00000     0.00000
                               V21M TOT/SRF=     0.00000     0.00000

              0.39788    0.00000    0.00000        0.39788    0.00000    0.00000
              0.00000    0.81153    0.00000        0.00000    0.81153    0.00000
              0.00000    0.00000   -1.20941        0.00000    0.00000   -1.20941

         MAIN DIRECTIONS OF THE EFG   1.0000  0.0000  0.0000
                                      0.0000  1.0000  0.0000
                                      0.0000  0.0000  1.0000
:ANG001:  ANGLE WITH OLD X-AXIS =         0.0

:ETA001:                         ASYMM. ETA =     0.34202


     HELLMANN-FEYNMAN-FORCE IN mRy/a.u. = |F|  Fx       Fy             Fz
:FHF001:   1.ATOM    323.084143939256      0.000000000000      0.000000000000   -323.084143939256

:FIT001: LUSE= 13 SIGMA OF V-XC FIT FOR ATOM  1  0.6115258E-05
:FIT001: LUSE= 13 SIGMA OF V-XC FIT FOR ATOM  1  0.6115258E-05
:DEN  : DENSITY INTEGRAL  =        -14134.49952490   (Ry)
       ELS_POTENTIAL_AT Z=0 and Z=0.5:   0.63692   0.63692
       ELS_POTENTIAL_AT Y=0 and Y=0.5:   0.08510   0.08510
:VZERO:v0,v0c,v0x   0.10563   0.63692  -0.53130 v5,v5c,v5x   0.10563   0.63692  -0.53130
:VZERY:v0,v0c,v0x  -0.62933   0.08510  -0.71443 v5,v5c,v5x  -0.62933   0.08510  -0.71443
:VZERX:v0,v0c,v0x  -1.05338  -0.36270  -0.69068 v5,v5c,v5x  -1.05338  -0.36270  -0.69068
:LMAX-WF:   10   Non-Spherical LMAX:   4

          ATOMIC SPHERE DEPENDENT PARAMETERS FOR ATOM  Pr1       
:e__0001: OVERALL ENERGY PARAMETER IS    0.3048
          OVERALL BASIS SET ON ATOM IS LAPW
:E0_0001: E( 0)=    0.3048
             APW+lo
:E0_0001: E( 0)=   -2.1765   E(BOTTOM)=   -2.813   E(TOP)=   -1.540  4  5   164
             LOCAL ORBITAL
:E1_0001: E( 1)=    0.7048
             APW+lo
:E1_0001: E( 1)=   -0.7074   E(BOTTOM)=   -1.666   E(TOP)=    0.251  3  4   193
             LOCAL ORBITAL
:E3_0001: E( 3)=    0.4843   E(BOTTOM)=    0.275   E(TOP)=    0.694  0  1   124
             APW+lo
:E2_0001: E( 2)=    0.3048   E(BOTTOM)=    0.074   E(TOP)= -200.000  2 -1    97
             APW+lo

       K=   0.06250   0.00000   0.06250            1
:RKM  : MATRIX SIZE   530LOs:  40  RKM= 8.48  WEIGHT= 4.00  PGR:    
       EIGENVALUES ARE:
:EIG00001:      -2.1407050   -2.1332627   -0.8486160   -0.8017105   -0.7908351
:EIG00006:      -0.7868853   -0.7824946   -0.7815727    0.2715440    0.4185865
:EIG00011:       0.5010184    0.5018712    0.5026435    0.5039014    0.5064217
:EIG00016:       0.5143146    0.5171630    0.5177157    0.5198013    0.5216842
:EIG00021:       0.5242316    0.5261457    0.5271741    0.5311503    0.5677556
:EIG00026:       0.5795837    0.6336799    0.6623181    0.6694702    0.7103539
:EIG00031:       0.7248985    0.7894460    0.8319775    0.8659223    1.0991372
:EIG00036:       1.1571308    1.2457108    1.2494999    1.3850752    1.4383291
:EIG00041:       1.4657976    1.5665909    1.6201611    1.6447621    1.7105445
:EIG00046:       1.7910548    1.7965525    1.8233912    1.8952971    1.9644097
 
       ********************************************************

:KPT   :      NUMBER OF K-POINTS:   288
:GAP (global)   :    0.0    Ry =     0.0   eV (metal)
         Bandranges (emin - emax) and occupancy:
:BAN00004:   4   -0.839653   -0.801711  2.00000000
:BAN00005:   5   -0.833683   -0.790835  2.00000000
:BAN00006:   6   -0.823143   -0.784619  2.00000000
:BAN00007:   7   -0.810634   -0.781758  2.00000000
:BAN00008:   8   -0.793200   -0.780072  2.00000000
:BAN00009:   9    0.267428    0.475406  2.00000000
:BAN00010:  10    0.370081    0.489407  2.00000000
:BAN00011:  11    0.460710    0.501018  2.00000000
:BAN00012:  12    0.490364    0.504398  2.00000000
:BAN00013:  13    0.496832    0.511717  1.52174642
:BAN00014:  14    0.501990    0.515227  0.47825357
:BAN00015:  15    0.505642    0.516455  0.00000000
:BAN00016:  16    0.508640    0.517253  0.00000000
:BAN00017:  17    0.511959    0.518689  0.00000000
:BAN00018:  18    0.513047    0.519810  0.00000000
:BAN00019:  19    0.515178    0.522282  0.00000000
        Energy to separate low and high energystates:    0.21743


:NOE  : NUMBER OF ELECTRONS          =   26.000

:FER  : F E R M I - ENERGY(TETRAH.M.)=   0.5054000539
:GMA  : POTENTIAL AND CHARGE CUT-OFF  12.00 Ry**.5

:POS001: ATOM   -1 X,Y,Z = 0.00000 0.89750 0.25000  MULT= 2  ZZ= 59.000  Pr1       

       LMMAX 16
       LM=   0 0  1 0  2 0  2 2  3 0  3 2  4 0  4 2  4 4  5 0  5 2  5 4  6 0  6 2  6 4  6 6

:CHA001: TOTAL VALENCE CHARGE INSIDE SPHERE   1 =   9.4941    (RMT=  2.3000 )
:PCS001: PARTIAL CHARGES SPHERE =  1 S,P,D,F,PX,PY,PZ,D-Z2,D-X2Y2,D-XY,D-XZ,D-YZ 
:QTL001: 1.9377 5.0240 0.4285 2.1038 1.6718 1.6726 1.6796 0.0779 0.0777 0.0973 0.0811 0.0945
        Q-s-low E-s-low   Q-p-low E-p-low   Q-d-low E-d-low   Q-f-low E-f-low
:EPL001:  1.8697 -2.1335    4.9673 -0.8095    0.0006 -0.8289    0.0002 -0.8377
        Q-s-hi  E-s-hi    Q-p-hi  E-p-hi    Q-d-hi  E-d-hi    Q-f-hi  E-f-hi 
:EPH001:  0.0680  0.4050    0.0567  0.4431    0.4278  0.4649    2.1037  0.4960

                      VXX         VYY         VZZ       UP TO R
:VZZ001:             5.39835     0.78771    -6.18606       2.300

:CHA  : TOTAL VALENCE CHARGE INSIDE UNIT CELL =      26.000000

:SUM  : SUM OF EIGENVALUES =         -13.567751925


        1.ATOM      Pr1                  14 CORE STATES
       CORE-FORCE in mRy/a.u. = |F|      Fx             Fy             Fz
:FCO001:   1.ATOM    326.034160389816      0.000000000000      0.000000000000    326.034160389816

:1S 001: 1S               -3067.076272150 Ry
:2S 001: 2S                -492.837224136 Ry
:2PP001: 2P*               -465.935583361 Ry
:2P 001: 2P                -430.538477778 Ry
:3S 001: 3S                -105.930147842 Ry
:3PP001: 3P*                -94.467803596 Ry
:3P 001: 3P                 -87.460199848 Ry
:3DD001: 3D*                -67.387064621 Ry
:3D 001: 3D                 -65.875560511 Ry
:4S 001: 4S                 -20.614315621 Ry
:4PP001: 4P*                -16.321432248 Ry
:4P 001: 4P                 -14.794553495 Ry
:4DD001: 4D*                 -7.728531547 Ry
:4D 001: 4D                  -7.459313314 Ry
:CINT001 Core Integral Atom   1   45.998480

       DENSITY AT NUCLEUS
        JATOM        VALENCE       SEMI-CORE          CORE           TOTAL
:RTO001:   1      645.741374        0.000000   656821.932844   657467.674218
     
       CHARGES OF NEW CHARGE DENSITY
:NTO   : INTERSTITIAL CHARGE =     7.011790
:NPC   : PW Pseudocharge     =    16.797983
:NTO001: CHARGE SPHERE  1    =    55.492585

:NEC01: NUCLEAR AND ELECTRONIC CHARGE    118.00000   117.99696
     
       CHARGES OF OLD CHARGE DENSITY
:OTO   : INTERSTITIAL CHARGE =     7.041097
:OPC   : PW Pseudocharge     =    16.822739
:OTO001: CHARGE SPHERE  1    =    55.479451

:NEC02: NUCLEAR AND ELECTRONIC CHARGE    118.00000   118.00000
     
       CONVERGENCE TEST
:DTO001: DIFFERENCE IN SPHERE  1 =  0.0854466

:DIS  :  CHARGE DISTANCE       ( 0.0854466 for atom    1 spin 1)      0.0854466
 PW Mixed is          580
 
******************************************************
* MULTISECANT MIXING VER9 RELEASE 10.4.0              *
* Standard Mode with controls                        *
* Fixed density scale                                *
* Regularization       1.000E-04                     *
* Trust Upper Limit    5.000E+00                     *
* Max Number of Memory Steps    8                    *
******************************************************
 
:PWTMP   4.6493E+02  1.9467E+02  5.6686E+02
:PLANE:  PW TOTAL      4.2763 DISTAN   8.02E-02  1.88E+00 %
:CHARG:  CLM/ATOM   1382.0186 DISTAN   5.05E-01  3.66E-02 %
 
Step History
        DMIX         DMIXT        Red     Pred      Trust     Lambda    MagRel    MagAbs     Beta
  1   3.5000E-02   3.5000E-02 -1.00E+00  1.00E+00 -1.00E+01  1.00E+00  3.50E-02  3.50E-02  1.00E+00
  2   2.5000E-02   2.5000E-02  7.77E-01  1.00E+00 -1.00E+01  1.00E+00  2.50E-02  2.30E-02  1.00E+00
  3   2.9676E-02   2.9676E-02  9.64E-01  1.00E+00 -1.00E+01  5.06E-02  2.97E-02  2.13E-02  1.00E+00
  4   3.3704E-02   3.3704E-02  9.43E-01  9.94E-01  1.93E-01  1.54E+00  3.34E-02  2.31E-02  1.00E+00
  5   8.4259E-02   5.3060E-02 -1.00E+00  8.90E-01  2.03E-01  1.00E+00  2.03E-01  1.32E-01  1.00E+00
:JACOBIANS    9.008E-01   3.094E-01
  
:NORMS:  1/Froebius, Min, Max, Used   0.6071E+00  0.3915E+00  0.9965E+00  0.6172E+00
:INFO :  Number of Memory Steps    4 Skipping    0
:INFO :  SLambda=    0.8669106326  Max    0.8669106326
:PREDicted Charge, CTotal, PW Trust    3.840E-03   7.679E-03   3.344E-02
:PREDicted DMix, Beta, BLim   3.0680E-01  2.4553E+00  5.9927E-01

Eigenvalues, unscaled except for SY+YY
   #     SY Real        SY Imag          SS             YY         SY+YY Real      SY+YY Imag
   1   1.124524E+00   0.000000E+00   8.935026E-01   3.276304E+00   4.244551E+00   0.000000E+00
   2   6.119878E-01   0.000000E+00   5.805592E-01   7.088471E-01   1.243988E+00   0.000000E+00
   3   3.330356E-15   0.000000E+00   1.151093E-04   1.474845E-02   1.020480E-04   0.000000E+00
   4   1.520053E-03   0.000000E+00  -5.737634E-17   1.005384E-04   1.807721E-02   0.000000E+00
 
:INFO :  Singular value  4.245E+00 Weight  1.000E+00 Projection -1.602E-01
:INFO :  Singular value  1.244E+00 Weight  1.000E+00 Projection -2.040E-01
:INFO :  Singular value  1.808E-02 Weight  9.997E-01 Projection -1.821E+00
:INFO :  Singular value  1.020E-04 Weight  8.844E-02 Projection -1.946E+00
:RANK :  ACTIVE   3.09/4  =  77.20 % ; YY RANK   3.09/4  =  77.14 %
 
:BLIM :  VZERO Control Off
:TRUST:  Step 3.99E-01  Charge 7.50E-02 (e) CTO  2.50E-01 (e) PW  3.50E-01 (e)
:DTRUS:  Lambda    1.274E+00 Increment    7.276E-12 Iterations   109 DMIX    1.613E-01
:INFOA:  Angle SubSpace to MSR1      4.45
:DIRM :  MEMORY  4/8  SCALE   1.000 RED  0.78 PRED  0.89 NEXT  0.81 
:INFO :  Limited by Atoms F by Step T

:TRAVE:  Charge 6.68E-03 (e) CTO  1.34E-02 (e) PW  1.29E-02 (e)
:DIRP :  |MSR1|= 3.382E-02 |PRATT|= 8.024E-02 ANGLE=   4.6 DEGREES
:DIRQ :  |MSR1|= 2.011E-01 |PRATT|= 5.052E-01 ANGLE=   7.1 DEGREES
:DIRT :  |MSR1|= 2.039E-01 |PRATT|= 5.116E-01 ANGLE=   7.1 DEGREES
:MIX  :   MSD1   REGULARIZATION:  3.28E-04 GREED: 0.18241  LMStep 0.70  0.3986 Step           
     
       CHARGES OF MIXED CHARGE DENSITY
:CTO   : INTERSTITIAL CHARGE =     7.015677
:CPC   : PW Pseudocharge     =    16.808148
:CTO001: CHARGE SPHERE  1    =    55.492161

:NEC03: NUCLEAR AND ELECTRONIC CHARGE    118.00000   118.00000

PW CHANGE     H    K    L      Current       Change    Residue
:PTO001:      0    0    0  4.20277098E-02 -7.058E-05 -7.716E-05
:PTO003:      0    2    0  1.25098618E-02 -1.504E-05  2.235E-05
:PTO004:     -1    1    0  6.21063348E-02 -1.745E-04 -3.095E-04
:PTO005:      0    2   -1 -7.26376835E-02  1.749E-04  3.936E-04
:PTO006:      0    0   -2 -3.76304464E-02  1.282E-04  2.917E-04
:PTO007:     -1    1   -1 -8.00147375E-02  3.124E-04  7.939E-04
:PTO008:      0    2   -2 -1.36982332E-02  1.041E-04  2.101E-04
:PTO009:     -1    1   -2 -7.09633941E-02 -5.991E-05 -2.086E-04
:PTO011:     -1    3    0 -1.19770428E-02 -1.477E-05 -1.200E-05
:PTO012:     -1    3   -1 -5.54948367E-02  6.459E-05  6.950E-05
:PTO013:      0    4    0 -1.05614450E-02  7.475E-05  1.725E-04
:PTO014:      0    2   -3  2.40405979E-02 -6.912E-05 -1.308E-04

:ENE  : ********** TOTAL ENERGY IN Ry =       -36944.08749685

       TOTAL FORCE IN mRy/a.u. = |F|     Fx             Fy             Fz     with/without FOR in case.in2
:FOR001:   1.ATOM          2.950          0.000          0.000          2.950 partial forces
       TOTAL FORCE WITH RESPECT TO GLOBAL CARTESIAN COORDINATES:
:FCA001:   1.ATOM                         0.000          2.950          0.000 partial forces
       TOTAL FORCE WITH RESPECT TO THE GLOBAL COORDINATE SYSTEM:
:FGL001:   1.ATOM                 0.000000000     2.950016451     0.000000000 partial forces
 Flat Integration
 New Mode for Coulomb Integral
 Consistent 3/8+Simpson combinations
 Extension of core to zero
 LDM version in phi
 Fifth-order quadrature in outwin


            ---------
:ITE006:  6. ITERATION
            ---------

:NATO :    1 INDEPENDENT AND    2 TOTAL ATOMS IN UNITCELL
       SUBSTANCE: aU                                                          

       LATTICE                      = CXY 
:POT  : POTENTIAL OPTION EX_LDA EC_LDA VX_LDA VC_LDA
:LAT  : LATTICE CONSTANTS=  6.83209 13.86404 11.96912    1.571    1.571    1.571
:VOL  : UNIT CELL VOLUME =     566.85996
       MODE OF CALCULATION IS       = RELA
       NON-SPINPOLARIZED CALCULATION
:IFFT  : FFT-parameters:   60  108   96 Factor: 2.00


   CONVERGENCE PARAMETER FOR PSEUDOCHARGE: NCON=  9
   MAXIMAL VALUE OF RMT(JATOM)*ABSK(NKK) : RK  =27.59644


:VKCOUL :  VK-COUL convergence: 0.135E-06
       ATOMNUMBER=  1 Pr1        VCOUL-ZERO = -0.76763E-01
:EFG001:                        EFG         =    -3.39608   *10**21  V / m**2
                               V20  TOT/SRF=    -2.94109    -0.01679
                               V22  TOT/SRF=     0.72040     0.00420
                               V22M TOT/SRF=     0.00000     0.00000
                               V21  TOT/SRF=     0.00000     0.00000
                               V21M TOT/SRF=     0.00000     0.00000

              2.41844    0.00000    0.00000        2.41844    0.00000    0.00000
              0.00000    0.97765    0.00000        0.00000    0.97765    0.00000
              0.00000    0.00000   -3.39608        0.00000    0.00000   -3.39608

         MAIN DIRECTIONS OF THE EFG   1.0000  0.0000  0.0000
                                      0.0000  1.0000  0.0000
                                      0.0000  0.0000  1.0000
:ANG001:  ANGLE WITH OLD X-AXIS =         0.0

:ETA001:                         ASYMM. ETA =     0.42425


     HELLMANN-FEYNMAN-FORCE IN mRy/a.u. = |F|  Fx       Fy             Fz
:FHF001:   1.ATOM    638.772586425735      0.000000000000      0.000000000000   -638.772586425735

:FIT001: LUSE= 13 SIGMA OF V-XC FIT FOR ATOM  1  0.2133065E-04
:FIT001: LUSE= 13 SIGMA OF V-XC FIT FOR ATOM  1  0.2133065E-04
:DEN  : DENSITY INTEGRAL  =        -14136.69257273   (Ry)
       ELS_POTENTIAL_AT Z=0 and Z=0.5:   0.63657   0.63657
       ELS_POTENTIAL_AT Y=0 and Y=0.5:   0.08670   0.08670
:VZERO:v0,v0c,v0x   0.10512   0.63657  -0.53146 v5,v5c,v5x   0.10512   0.63657  -0.53146
:VZERY:v0,v0c,v0x  -0.62766   0.08670  -0.71436 v5,v5c,v5x  -0.62766   0.08670  -0.71436
:VZERX:v0,v0c,v0x  -1.05340  -0.36266  -0.69073 v5,v5c,v5x  -1.05340  -0.36266  -0.69073
:LMAX-WF:   10   Non-Spherical LMAX:   4

          ATOMIC SPHERE DEPENDENT PARAMETERS FOR ATOM  Pr1       
:e__0001: OVERALL ENERGY PARAMETER IS    0.3052
          OVERALL BASIS SET ON ATOM IS LAPW
:E0_0001: E( 0)=    0.3052
             APW+lo
:E0_0001: E( 0)=   -2.1687   E(BOTTOM)=   -2.807   E(TOP)=   -1.530  4  5   167
             LOCAL ORBITAL
:E1_0001: E( 1)=    0.7052
             APW+lo
:E1_0001: E( 1)=   -0.7006   E(BOTTOM)=   -1.661   E(TOP)=    0.260  3  4   192
             LOCAL ORBITAL
:E3_0001: E( 3)=    0.4993   E(BOTTOM)=    0.287   E(TOP)=    0.711  0  1   119
             APW+lo
:E2_0001: E( 2)=    0.3052   E(BOTTOM)=    0.078   E(TOP)= -200.000  2 -1    97
             APW+lo

       K=   0.06250   0.00000   0.06250            1
:RKM  : MATRIX SIZE   530LOs:  40  RKM= 8.48  WEIGHT= 4.00  PGR:    
       EIGENVALUES ARE:
:EIG00001:      -2.1333546   -2.1258451   -0.8447634   -0.7960474   -0.7850485
:EIG00006:      -0.7802316   -0.7773201   -0.7757915    0.2720979    0.4193585
:EIG00011:       0.5151829    0.5153860    0.5158064    0.5186296    0.5194490
:EIG00016:       0.5288171    0.5315145    0.5317108    0.5338646    0.5354396
:EIG00021:       0.5388116    0.5427462    0.5427836    0.5450073    0.5727089
:EIG00026:       0.5835303    0.6360906    0.6643828    0.6714777    0.7128963
:EIG00031:       0.7276657    0.7916638    0.8344618    0.8683891    1.1014485
:EIG00036:       1.1587299    1.2471541    1.2503622    1.3860758    1.4391816
:EIG00041:       1.4673873    1.5682375    1.6216898    1.6462946    1.7122111
:EIG00046:       1.7926657    1.7971801    1.8250989    1.8963025    1.9664820
 
       ********************************************************

:KPT   :      NUMBER OF K-POINTS:   288
:GAP (global)   :    0.0    Ry =     0.0   eV (metal)
         Bandranges (emin - emax) and occupancy:
:BAN00004:   4   -0.833625   -0.796047  2.00000000
:BAN00005:   5   -0.827481   -0.785048  2.00000000
:BAN00006:   6   -0.818131   -0.777927  2.00000000
:BAN00007:   7   -0.804980   -0.776230  2.00000000
:BAN00008:   8   -0.787881   -0.773657  2.00000000
:BAN00009:   9    0.267975    0.480494  2.00000000
:BAN00010:  10    0.370750    0.495182  2.00000000
:BAN00011:  11    0.463103    0.515183  2.00000000
:BAN00012:  12    0.496647    0.517340  2.00000000
:BAN00013:  13    0.507627    0.525514  1.52963141
:BAN00014:  14    0.514326    0.529445  0.47036859
:BAN00015:  15    0.518994    0.531186  0.00000000
:BAN00016:  16    0.522678    0.532379  0.00000000
:BAN00017:  17    0.525918    0.533492  0.00000000
:BAN00018:  18    0.527481    0.533785  0.00000000
:BAN00019:  19    0.529971    0.535785  0.00000000
        Energy to separate low and high energystates:    0.21797


:NOE  : NUMBER OF ELECTRONS          =   26.000

:FER  : F E R M I - ENERGY(TETRAH.M.)=   0.5184131669
:GMA  : POTENTIAL AND CHARGE CUT-OFF  12.00 Ry**.5

:POS001: ATOM   -1 X,Y,Z = 0.00000 0.89750 0.25000  MULT= 2  ZZ= 59.000  Pr1       

       LMMAX 16
       LM=   0 0  1 0  2 0  2 2  3 0  3 2  4 0  4 2  4 4  5 0  5 2  5 4  6 0  6 2  6 4  6 6

:CHA001: TOTAL VALENCE CHARGE INSIDE SPHERE   1 =   9.2859    (RMT=  2.3000 )
:PCS001: PARTIAL CHARGES SPHERE =  1 S,P,D,F,PX,PY,PZ,D-Z2,D-X2Y2,D-XY,D-XZ,D-YZ 
:QTL001: 1.9384 5.0265 0.4925 1.8284 1.6723 1.6730 1.6812 0.0920 0.0942 0.1055 0.0936 0.1072
        Q-s-low E-s-low   Q-p-low E-p-low   Q-d-low E-d-low   Q-f-low E-f-low
:EPL001:  1.8690 -2.1261    4.9618 -0.8041    0.0006 -0.8238    0.0002 -0.8310
        Q-s-hi  E-s-hi    Q-p-hi  E-p-hi    Q-d-hi  E-d-hi    Q-f-hi  E-f-hi 
:EPH001:  0.0694  0.4081    0.0647  0.4522    0.4918  0.4733    1.8282  0.5076

                      VXX         VYY         VZZ       UP TO R
:VZZ001:            -0.07354     6.64851    -6.57497       2.300

:CHA  : TOTAL VALENCE CHARGE INSIDE UNIT CELL =      26.000000

:SUM  : SUM OF EIGENVALUES =         -13.407510268


        1.ATOM      Pr1                  14 CORE STATES
       CORE-FORCE in mRy/a.u. = |F|      Fx             Fy             Fz
:FCO001:   1.ATOM    635.774995112501      0.000000000000      0.000000000000    635.774995112501

:1S 001: 1S               -3067.060648002 Ry
:2S 001: 2S                -492.816379541 Ry
:2PP001: 2P*               -465.915512776 Ry
:2P 001: 2P                -430.518080897 Ry
:3S 001: 3S                -105.904978857 Ry
:3PP001: 3P*                -94.442839182 Ry
:3P 001: 3P                 -87.435092374 Ry
:3DD001: 3D*                -67.362321318 Ry
:3D 001: 3D                 -65.850756174 Ry
:4S 001: 4S                 -20.592198575 Ry
:4PP001: 4P*                -16.299732795 Ry
:4P 001: 4P                 -14.773429961 Ry
:4DD001: 4D*                 -7.708501761 Ry
:4D 001: 4D                  -7.439483887 Ry
:CINT001 Core Integral Atom   1   45.998465

       DENSITY AT NUCLEUS
        JATOM        VALENCE       SEMI-CORE          CORE           TOTAL
:RTO001:   1      645.224601        0.000000   656822.135629   657467.360230
     
       CHARGES OF NEW CHARGE DENSITY
:NTO   : INTERSTITIAL CHARGE =     7.428231
:NPC   : PW Pseudocharge     =    16.900279
:NTO001: CHARGE SPHERE  1    =    55.284349

:NEC01: NUCLEAR AND ELECTRONIC CHARGE    118.00000   117.99693
     
       CHARGES OF OLD CHARGE DENSITY
:OTO   : INTERSTITIAL CHARGE =     7.015677
:OPC   : PW Pseudocharge     =    16.808148
:OTO001: CHARGE SPHERE  1    =    55.492161

:NEC02: NUCLEAR AND ELECTRONIC CHARGE    118.00000   118.00000
     
       CONVERGENCE TEST
:DTO001: DIFFERENCE IN SPHERE  1 =  0.3310082

:DIS  :  CHARGE DISTANCE       ( 0.3310082 for atom    1 spin 1)      0.3310082
 PW Mixed is          580
 
******************************************************
* MULTISECANT MIXING VER9 RELEASE 10.4.0              *
* Standard Mode with controls                        *
* Fixed density scale                                *
* Regularization       1.000E-04                     *
* Trust Upper Limit    5.000E+00                     *
* Max Number of Memory Steps    8                    *
******************************************************
 
:PWTMP   4.6493E+02  1.9467E+02  5.6686E+02
:PLANE:  PW TOTAL      4.2635 DISTAN   6.72E-02  1.58E+00 %
:CHARG:  CLM/ATOM   1381.9835 DISTAN   5.52E-01  4.00E-02 %
 
Step History
        DMIX         DMIXT        Red     Pred      Trust     Lambda    MagRel    MagAbs     Beta
  1   3.5000E-02   3.5000E-02 -1.00E+00  1.00E+00 -1.00E+01  1.00E+00  3.50E-02  3.50E-02  1.00E+00
  2   2.5000E-02   2.5000E-02  7.77E-01  1.00E+00 -1.00E+01  1.00E+00  2.50E-02  2.30E-02  1.00E+00
  3   2.9676E-02   2.9676E-02  9.64E-01  1.00E+00 -1.00E+01  5.06E-02  2.97E-02  2.13E-02  1.00E+00
  4   3.3704E-02   3.3704E-02  9.43E-01  9.94E-01  1.93E-01  1.54E+00  3.34E-02  2.31E-02  1.00E+00
  5   8.4259E-02   5.3060E-02  7.85E-01  8.90E-01  2.03E-01  8.67E-01  2.03E-01  1.32E-01  1.00E+00
  6   1.8241E-01   1.6130E-01 -1.00E+00  8.07E-01  3.99E-01  1.00E+00  3.99E-01  2.04E-01  1.00E+00
:JACOBIANS    9.511E-01   5.838E-01
  
:NORMS:  1/Froebius, Min, Max, Used   0.4803E+00  0.3772E+00  0.9971E+00  0.4852E+00
:INFO :  Number of Memory Steps    5 Skipping    0
:INFO :  SLambda=    1.3003659490  Max    1.3003659490
:PREDicted Charge, CTotal, PW Trust    3.589E-03   7.178E-03   1.747E-02
:PREDicted DMix, Beta, BLim   1.8998E-01  1.4512E+00  7.4917E-01

Eigenvalues, unscaled except for SY+YY
   #     SY Real        SY Imag          SS             YY         SY+YY Real      SY+YY Imag
   1   1.322639E+00   0.000000E+00   9.157915E-01   4.574871E+00   6.285895E+00   0.000000E+00
   2   2.452399E-01   0.000000E+00   2.360641E-01   3.290504E-01   6.357087E-01   0.000000E+00
   3   1.448563E-02   0.000000E+00   1.688986E-03   9.434239E-02   1.338100E-01   0.000000E+00
   4  -9.290839E-16   0.000000E+00   1.240073E-05   1.715483E-03   2.059364E-05   0.000000E+00
   5   2.006611E-04   0.000000E+00   9.235991E-18   2.067094E-05   2.479015E-03   0.000000E+00
 
:INFO :  Singular value  6.286E+00 Weight  1.000E+00 Projection  6.625E-02
:INFO :  Singular value  6.357E-01 Weight  1.000E+00 Projection  8.817E-03
:INFO :  Singular value  1.338E-01 Weight  1.000E+00 Projection  1.141E+00
:INFO :  Singular value  2.479E-03 Weight  9.671E-01 Projection -7.674E+00
:INFO :  Singular value  2.059E-05 Weight  2.022E-03 Projection -2.958E-02
:RANK :  ACTIVE   3.97/5  =  79.38 % ; YY RANK   3.94/5  =  78.71 %
 
:BLIM :  VZERO Control Off
:TRUST:  Step 5.24E-01  Charge 6.82E-02 (e) CTO  2.27E-01 (e) PW  3.18E-01 (e)
:DIRM :  MEMORY  5/8  SCALE   1.000 RED  1.09 PRED  0.81 NEXT  0.32 
:TRAVE:  Charge 8.86E-03 (e) CTO  1.77E-02 (e) PW  6.64E-03 (e)
:DIRP :  |MSR1|= 3.898E-02 |PRATT|= 6.716E-02 ANGLE=  44.8 DEGREES
:DIRQ :  |MSR1|= 1.820E-01 |PRATT|= 5.522E-01 ANGLE=  57.3 DEGREES
:DIRT :  |MSR1|= 1.862E-01 |PRATT|= 5.563E-01 ANGLE=  57.1 DEGREES
:MIX  :   MSE1   REGULARIZATION:  4.57E-04 GREED: 0.15510  Newton 1.00  0.3346                
     
       CHARGES OF MIXED CHARGE DENSITY
:CTO   : INTERSTITIAL CHARGE =     7.037756
:CPC   : PW Pseudocharge     =    16.784843
:CTO001: CHARGE SPHERE  1    =    55.481122

:NEC03: NUCLEAR AND ELECTRONIC CHARGE    118.00000   118.00000

PW CHANGE     H    K    L      Current       Change    Residue
:PTO001:      0    0    0  4.20255447E-02 -2.165E-06  9.081E-04
:PTO003:      0    2    0  1.25193808E-02  9.519E-06 -1.290E-05
:PTO004:     -1    1    0  6.19034740E-02 -2.029E-04  1.281E-04
:PTO005:      0    2   -1 -7.23470476E-02  2.906E-04  2.033E-04
:PTO006:      0    0   -2 -3.74297466E-02  2.007E-04  2.229E-04
:PTO007:     -1    1   -1 -7.95518992E-02  4.628E-04  4.356E-04
:PTO008:      0    2   -2 -1.35793311E-02  1.189E-04  1.815E-04
:PTO009:     -1    1   -2 -7.08253343E-02  1.381E-04  3.804E-05
:PTO011:     -1    3    0 -1.19393415E-02  3.770E-05 -8.139E-05
:PTO012:     -1    3   -1 -5.52965219E-02  1.983E-04  4.988E-06
:PTO013:      0    4    0 -1.04507438E-02  1.107E-04  9.965E-05
:PTO014:      0    2   -3  2.38779691E-02 -1.626E-04 -1.806E-04

:ENE  : ********** TOTAL ENERGY IN Ry =       -36944.09153313

       TOTAL FORCE IN mRy/a.u. = |F|     Fx             Fy             Fz     with/without FOR in case.in2
:FOR001:   1.ATOM          2.998          0.000          0.000         -2.998 partial forces
       TOTAL FORCE WITH RESPECT TO GLOBAL CARTESIAN COORDINATES:
:FCA001:   1.ATOM                         0.000         -2.998          0.000 partial forces
       TOTAL FORCE WITH RESPECT TO THE GLOBAL COORDINATE SYSTEM:
:FGL001:   1.ATOM                 0.000000000    -2.997591313     0.000000000 partial forces
 Flat Integration
 New Mode for Coulomb Integral
 Consistent 3/8+Simpson combinations
 Extension of core to zero
 LDM version in phi
 Fifth-order quadrature in outwin


            ---------
:ITE007:  7. ITERATION
            ---------

:NATO :    1 INDEPENDENT AND    2 TOTAL ATOMS IN UNITCELL
       SUBSTANCE: aU                                                          

       LATTICE                      = CXY 
:POT  : POTENTIAL OPTION EX_LDA EC_LDA VX_LDA VC_LDA
:LAT  : LATTICE CONSTANTS=  6.83209 13.86404 11.96912    1.571    1.571    1.571
:VOL  : UNIT CELL VOLUME =     566.85996
       MODE OF CALCULATION IS       = RELA
       NON-SPINPOLARIZED CALCULATION
:IFFT  : FFT-parameters:   60  108   96 Factor: 2.00


   CONVERGENCE PARAMETER FOR PSEUDOCHARGE: NCON=  9
   MAXIMAL VALUE OF RMT(JATOM)*ABSK(NKK) : RK  =27.59644


:VKCOUL :  VK-COUL convergence: 0.168E-06
       ATOMNUMBER=  1 Pr1        VCOUL-ZERO = -0.79029E-01
:EFG001:                        EFG         =    -5.21117   *10**21  V / m**2
                               V20  TOT/SRF=    -4.51300    -0.01470
                               V22  TOT/SRF=     0.55521     0.00167
                               V22M TOT/SRF=     0.00000     0.00000
                               V21  TOT/SRF=     0.00000     0.00000
                               V21M TOT/SRF=     0.00000     0.00000

              3.16080    0.00000    0.00000        3.16080    0.00000    0.00000
              0.00000    2.05037    0.00000        0.00000    2.05037    0.00000
              0.00000    0.00000   -5.21117        0.00000    0.00000   -5.21117

         MAIN DIRECTIONS OF THE EFG   1.0000  0.0000  0.0000
                                      0.0000  1.0000  0.0000
                                      0.0000  0.0000  1.0000
:ANG001:  ANGLE WITH OLD X-AXIS =         0.0

:ETA001:                         ASYMM. ETA =     0.21309


     HELLMANN-FEYNMAN-FORCE IN mRy/a.u. = |F|  Fx       Fy             Fz
:FHF001:   1.ATOM    879.436692612273      0.000000000000      0.000000000000   -879.436692612273

:FIT001: LUSE= 13 SIGMA OF V-XC FIT FOR ATOM  1  0.4484952E-04
:FIT001: LUSE= 13 SIGMA OF V-XC FIT FOR ATOM  1  0.4484952E-04
:DEN  : DENSITY INTEGRAL  =        -14134.00560185   (Ry)
       ELS_POTENTIAL_AT Z=0 and Z=0.5:   0.64040   0.64040
       ELS_POTENTIAL_AT Y=0 and Y=0.5:   0.08912   0.08912
:VZERO:v0,v0c,v0x   0.10732   0.64040  -0.53308 v5,v5c,v5x   0.10732   0.64040  -0.53308
:VZERY:v0,v0c,v0x  -0.62635   0.08912  -0.71547 v5,v5c,v5x  -0.62635   0.08912  -0.71547
:VZERX:v0,v0c,v0x  -1.05490  -0.36307  -0.69183 v5,v5c,v5x  -1.05490  -0.36307  -0.69183
:LMAX-WF:   10   Non-Spherical LMAX:   4

          ATOMIC SPHERE DEPENDENT PARAMETERS FOR ATOM  Pr1       
:e__0001: OVERALL ENERGY PARAMETER IS    0.3140
          OVERALL BASIS SET ON ATOM IS LAPW
:E0_0001: E( 0)=    0.3140
             APW+lo
:E0_0001: E( 0)=   -2.1788   E(BOTTOM)=   -2.816   E(TOP)=   -1.542  4  5   163
             LOCAL ORBITAL
:E1_0001: E( 1)=    0.7140
             APW+lo
:E1_0001: E( 1)=   -0.7098   E(BOTTOM)=   -1.669   E(TOP)=    0.249  3  4   195
             LOCAL ORBITAL
:E3_0001: E( 3)=    0.4841   E(BOTTOM)=    0.274   E(TOP)=    0.694  0  1   125
             APW+lo
:E2_0001: E( 2)=    0.3140   E(BOTTOM)=    0.072   E(TOP)= -200.000  2 -1    99
             APW+lo

       K=   0.06250   0.00000   0.06250            1
:RKM  : MATRIX SIZE   530LOs:  40  RKM= 8.48  WEIGHT= 4.00  PGR:    
       EIGENVALUES ARE:
:EIG00001:      -2.1428007   -2.1354115   -0.8507809   -0.8038576   -0.7929765
:EIG00006:      -0.7884004   -0.7842763   -0.7840533    0.2721835    0.4182517
:EIG00011:       0.5024073    0.5025631    0.5025994    0.5042344    0.5066275
:EIG00016:       0.5140863    0.5164211    0.5168073    0.5187625    0.5210593
:EIG00021:       0.5232244    0.5270874    0.5281220    0.5309357    0.5673601
:EIG00026:       0.5800069    0.6337534    0.6616145    0.6694032    0.7097370
:EIG00031:       0.7242833    0.7887470    0.8308928    0.8647279    1.0983945
:EIG00036:       1.1574332    1.2457106    1.2496000    1.3854089    1.4393276
:EIG00041:       1.4668339    1.5676821    1.6198729    1.6454193    1.7098523
:EIG00046:       1.7916188    1.7965445    1.8234982    1.8951614    1.9648348
 
       ********************************************************

:KPT   :      NUMBER OF K-POINTS:   288
:GAP (global)   :    0.0    Ry =     0.0   eV (metal)
         Bandranges (emin - emax) and occupancy:
:BAN00004:   4   -0.841097   -0.803858  2.00000000
:BAN00005:   5   -0.835125   -0.792976  2.00000000
:BAN00006:   6   -0.825260   -0.786137  2.00000000
:BAN00007:   7   -0.812625   -0.784276  2.00000000
:BAN00008:   8   -0.795205   -0.781947  2.00000000
:BAN00009:   9    0.268070    0.476320  2.00000000
:BAN00010:  10    0.370365    0.489546  2.00000000
:BAN00011:  11    0.460503    0.502407  2.00000000
:BAN00012:  12    0.490592    0.504320  2.00000000
:BAN00013:  13    0.496227    0.511879  1.48631790
:BAN00014:  14    0.501724    0.514943  0.51368210
:BAN00015:  15    0.505855    0.515712  0.00000000
:BAN00016:  16    0.509033    0.517434  0.00000000
:BAN00017:  17    0.511780    0.519290  0.00000000
:BAN00018:  18    0.513139    0.519725  0.00000000
:BAN00019:  19    0.515411    0.521408  0.00000000
        Energy to separate low and high energystates:    0.21807


:NOE  : NUMBER OF ELECTRONS          =   26.000

:FER  : F E R M I - ENERGY(TETRAH.M.)=   0.5052970443
:GMA  : POTENTIAL AND CHARGE CUT-OFF  12.00 Ry**.5

:POS001: ATOM   -1 X,Y,Z = 0.00000 0.89750 0.25000  MULT= 2  ZZ= 59.000  Pr1       

       LMMAX 16
       LM=   0 0  1 0  2 0  2 2  3 0  3 2  4 0  4 2  4 4  5 0  5 2  5 4  6 0  6 2  6 4  6 6

[...]
     
       CONVERGENCE TEST
:DTO001: DIFFERENCE IN SPHERE  1 =  0.0002464

:DIS  :  CHARGE DISTANCE       ( 0.0002464 for atom    1 spin 1)      0.0002464
 PW Mixed is          580
 
******************************************************
* MULTISECANT MIXING VER9 RELEASE 10.4.0              *
* Standard Mode with controls                        *
* Fixed density scale                                *
* Regularization       1.000E-04                     *
* Trust Upper Limit    5.000E+00                     *
* Max Number of Memory Steps    8                    *
******************************************************
 
:PWTMP   4.6493E+02  1.9467E+02  5.6686E+02
:PLANE:  PW TOTAL      4.2540 DISTAN   1.05E-04  2.47E-03 %
:CHARG:  CLM/ATOM   1381.9363 DISTAN   3.94E-04  2.85E-05 %
 
Step History
        DMIX         DMIXT        Red     Pred      Trust     Lambda    MagRel    MagAbs     Beta
  7   1.5510E-01   1.5510E-01  2.65E-01  3.24E-01  5.24E-01  5.53E-01  3.35E-01  1.86E-01  1.00E+00
  8   9.5773E-02   9.5773E-02  7.15E-01  9.34E-01  9.63E-01  7.88E-01  3.41E-01  5.03E-02  1.00E+00
  9   2.3943E-01   2.3943E-01  3.88E-01  4.18E-01  1.28E+00  1.10E+00  5.33E-01  5.63E-02  1.00E+00
 10   1.7272E-01   1.7272E-01  6.02E-01  6.35E-01  1.71E+00  1.64E+00  1.70E-01  6.97E-03  1.00E+00
 11   2.3574E-01   2.3574E-01  3.19E-01  3.76E-01  2.28E+00  1.09E+00  3.76E-01  9.27E-03  1.00E+00
 12   1.1602E-01   1.1602E-01  7.44E-01  9.27E-01  3.04E+00  7.75E-01  3.79E-01  2.97E-03  1.00E+00
 13   2.9006E-01   2.9006E-01  2.83E-01  2.33E-01  4.06E+00  1.04E+00  7.52E-01  4.39E-03  1.00E+00
 14   1.3536E-01   1.3536E-01  2.87E-01  3.20E-01  5.41E+00  1.44E+00  7.91E-01  1.31E-03  9.63E-01
 15   2.1107E-01   2.1107E-01 -1.00E+00  6.14E-01  7.22E+00  1.00E+00  4.51E-01  2.15E-04  1.00E+00
:JACOBIANS    5.971E-01   3.090E+00
  
:NORMS:  1/Froebius, Min, Max, Used   0.7116E+00  0.4741E+00  0.9484E+00  0.8789E+00
:INFO :  Number of Memory Steps    8 Skipping    6
:INFO :  SLambda=    1.7217200858  Max    1.7217200858
:PREDicted Charge, CTotal, PW Trust    2.354E-05   4.709E-05   6.892E-06
:PREDicted DMix, Beta, BLim   2.5310E-01  1.2059E+00  1.0839E+00

Eigenvalues, unscaled except for SY+YY
   #     SY Real        SY Imag          SS             YY         SY+YY Real      SY+YY Imag
   1   2.726958E+00   0.000000E+00   2.477325E+00   3.206702E+00   7.883910E+00   0.000000E+00
   2   1.250709E+00   0.000000E+00   1.036157E+00   1.848616E+00   3.983334E+00   0.000000E+00
   3   4.326650E-01   0.000000E+00   3.305031E-01   1.257599E+00   1.907658E+00   0.000000E+00
   4   3.756498E-01   0.000000E+00   1.680325E-01   7.651782E-01   1.400463E+00   0.000000E+00
   5   9.200597E-02   0.000000E+00   2.889032E-02   6.376339E-01   8.802124E-01   0.000000E+00
   6   7.657638E-02   0.000000E+00   7.858295E-03   2.330810E-01   4.223767E-01   0.000000E+00
   7   8.663524E-04   0.000000E+00   1.844813E-03   4.867811E-02   4.570449E-03   0.000000E+00
   8   5.227623E-03   0.000000E+00   1.534935E-04   2.512227E-03   5.833877E-02   0.000000E+00
 
:INFO :  Singular value  7.889E+00 Weight  1.000E+00 Projection  1.965E-05
:INFO :  Singular value  3.987E+00 Weight  1.000E+00 Projection  6.355E-05
:INFO :  Singular value  1.914E+00 Weight  1.000E+00 Projection -9.682E-05
:INFO :  Singular value  1.399E+00 Weight  1.000E+00 Projection -2.079E-04
:INFO :  Singular value  8.779E-01 Weight  1.000E+00 Projection -4.692E-05
:INFO :  Singular value  4.219E-01 Weight  1.000E+00 Projection  2.864E-05
:INFO :  Singular value  5.834E-02 Weight  1.000E+00 Projection  1.603E-04
:INFO :  Singular value  4.569E-03 Weight  9.951E-01 Projection  5.670E-03
:RANK :  ACTIVE   8.00/8  =  99.94 % ; YY RANK   7.98/8  =  99.80 %
 
:BLIM :  VZERO Control Off
:TRUST:  Step 8.42E+00  Charge 9.15E-03 (e) CTO  3.05E-02 (e) PW  4.27E-02 (e)
:DIRM :  MEMORY  8/8  SCALE   1.000 RED  0.86 PRED  0.61 NEXT  0.25 
:TRAVE:  Charge 6.88E-05 (e) CTO  1.38E-04 (e) PW  1.81E-04 (e)
:DIRP :  |MSR1|= 1.078E-04 |PRATT|= 1.052E-04 ANGLE=  18.5 DEGREES
:DIRQ :  |MSR1|= 1.582E-04 |PRATT|= 3.938E-04 ANGLE=  46.8 DEGREES
:DIRT :  |MSR1|= 1.914E-04 |PRATT|= 4.076E-04 ANGLE=  46.8 DEGREES
:MIX  :   MSE1   REGULARIZATION:  3.21E-04 GREED: 0.22442  Newton 1.00  0.4696                
     
       CHARGES OF MIXED CHARGE DENSITY
:CTO   : INTERSTITIAL CHARGE =     7.029491
:CPC   : PW Pseudocharge     =    16.821775
:CTO001: CHARGE SPHERE  1    =    55.485254

:NEC03: NUCLEAR AND ELECTRONIC CHARGE    118.00000   118.00000

PW CHANGE     H    K    L      Current       Change    Residue
:PTO001:      0    0    0  4.20761189E-02  3.989E-07 -1.734E-07
:PTO003:      0    2    0  1.24406049E-02  1.349E-07  9.734E-08
:PTO004:     -1    1    0  6.19693676E-02  1.024E-06  8.058E-07
:PTO005:      0    2   -1 -7.24874250E-02 -1.259E-06 -1.085E-06
:PTO006:      0    0   -2 -3.74815193E-02 -5.567E-07 -3.309E-07
:PTO007:     -1    1   -1 -7.97558317E-02 -1.293E-06 -9.851E-07
:PTO008:      0    2   -2 -1.35513784E-02 -1.184E-07  6.193E-08
:PTO009:     -1    1   -2 -7.11618114E-02 -1.943E-06 -1.700E-06
:PTO011:     -1    3    0 -1.21055838E-02 -4.632E-07 -3.807E-07
:PTO012:     -1    3   -1 -5.55076514E-02 -1.960E-06 -1.846E-06
:PTO013:      0    4    0 -1.04904814E-02 -3.775E-07 -3.663E-07
:PTO014:      0    2   -3  2.39446016E-02  9.968E-07  9.492E-07

:ENE  : ********** TOTAL ENERGY IN Ry =       -36944.08719120

       TOTAL FORCE IN mRy/a.u. = |F|     Fx             Fy             Fz     with/without FOR in case.in2
:FOR001:   1.ATOM         31.235          0.000          0.000        -31.235 partial forces
       TOTAL FORCE WITH RESPECT TO GLOBAL CARTESIAN COORDINATES:
:FCA001:   1.ATOM                         0.000        -31.235          0.000 partial forces
       TOTAL FORCE WITH RESPECT TO THE GLOBAL COORDINATE SYSTEM:
:FGL001:   1.ATOM                 0.000000000   -31.234787374     0.000000000 partial forces
 Flat Integration
 New Mode for Coulomb Integral
 Consistent 3/8+Simpson combinations
 Extension of core to zero
 LDM version in phi
 Fifth-order quadrature in outwin


            ---------
:ITE016: 16. ITERATION
            ---------

:NATO :    1 INDEPENDENT AND    2 TOTAL ATOMS IN UNITCELL
       SUBSTANCE: aU                                                          

       LATTICE                      = CXY 
:POT  : POTENTIAL OPTION EX_LDA EC_LDA VX_LDA VC_LDA
:LAT  : LATTICE CONSTANTS=  6.83209 13.86404 11.96912    1.571    1.571    1.571
:VOL  : UNIT CELL VOLUME =     566.85996
       MODE OF CALCULATION IS       = RELA
       NON-SPINPOLARIZED CALCULATION
:IFFT  : FFT-parameters:   60  108   96 Factor: 2.00


   CONVERGENCE PARAMETER FOR PSEUDOCHARGE: NCON=  9
   MAXIMAL VALUE OF RMT(JATOM)*ABSK(NKK) : RK  =27.59644


:VKCOUL :  VK-COUL convergence: 0.183E-06
       ATOMNUMBER=  1 Pr1        VCOUL-ZERO = -0.79351E-01
:EFG001:                        EFG         =    -6.15516   *10**21  V / m**2
                               V20  TOT/SRF=    -5.33053    -0.01549
                               V22  TOT/SRF=     0.27371     0.00191
                               V22M TOT/SRF=     0.00000     0.00000
                               V21  TOT/SRF=     0.00000     0.00000
                               V21M TOT/SRF=     0.00000     0.00000

              3.35129    0.00000    0.00000        3.35129    0.00000    0.00000
              0.00000    2.80387    0.00000        0.00000    2.80387    0.00000
              0.00000    0.00000   -6.15516        0.00000    0.00000   -6.15516

         MAIN DIRECTIONS OF THE EFG   1.0000  0.0000  0.0000
                                      0.0000  1.0000  0.0000
                                      0.0000  0.0000  1.0000
:ANG001:  ANGLE WITH OLD X-AXIS =         0.0

:ETA001:                         ASYMM. ETA =     0.08894


     HELLMANN-FEYNMAN-FORCE IN mRy/a.u. = |F|  Fx       Fy             Fz
:FHF001:   1.ATOM   1095.838295087698      0.000000000000      0.000000000000  -1095.838295087698

:FIT001: LUSE= 13 SIGMA OF V-XC FIT FOR ATOM  1  0.5920598E-04
:FIT001: LUSE= 13 SIGMA OF V-XC FIT FOR ATOM  1  0.5920598E-04
:DEN  : DENSITY INTEGRAL  =        -14134.08918210   (Ry)
       ELS_POTENTIAL_AT Z=0 and Z=0.5:   0.64082   0.64082
       ELS_POTENTIAL_AT Y=0 and Y=0.5:   0.08625   0.08625
:VZERO:v0,v0c,v0x   0.10778   0.64082  -0.53305 v5,v5c,v5x   0.10778   0.64082  -0.53305
:VZERY:v0,v0c,v0x  -0.62851   0.08625  -0.71476 v5,v5c,v5x  -0.62851   0.08625  -0.71476
:VZERX:v0,v0c,v0x  -1.05557  -0.36360  -0.69196 v5,v5c,v5x  -1.05557  -0.36360  -0.69196
:LMAX-WF:   10   Non-Spherical LMAX:   4

          ATOMIC SPHERE DEPENDENT PARAMETERS FOR ATOM  Pr1       
:e__0001: OVERALL ENERGY PARAMETER IS    0.3061
          OVERALL BASIS SET ON ATOM IS LAPW
:E0_0001: E( 0)=    0.3061
             APW+lo
:E0_0001: E( 0)=   -2.1784   E(BOTTOM)=   -2.815   E(TOP)=   -1.541  4  5   167
             LOCAL ORBITAL
:E1_0001: E( 1)=    0.7061
             APW+lo
:E1_0001: E( 1)=   -0.7095   E(BOTTOM)=   -1.669   E(TOP)=    0.250  3  4   199
             LOCAL ORBITAL
:E3_0001: E( 3)=    0.4849   E(BOTTOM)=    0.274   E(TOP)=    0.695  0  1   125
             APW+lo
:E2_0001: E( 2)=    0.3061   E(BOTTOM)=    0.072   E(TOP)= -200.000  2 -1    97
             APW+lo

       K=   0.06250   0.00000   0.06250            1
:RKM  : MATRIX SIZE   530LOs:  40  RKM= 8.48  WEIGHT= 4.00  PGR:    
       EIGENVALUES ARE:
:EIG00001:      -2.1424157   -2.1350052   -0.8505526   -0.8035159   -0.7926855
:EIG00006:      -0.7882936   -0.7839214   -0.7839141    0.2725402    0.4186987
:EIG00011:       0.5027228    0.5031160    0.5033379    0.5050187    0.5071346
:EIG00016:       0.5151125    0.5173451    0.5179259    0.5199293    0.5222212
:EIG00021:       0.5242996    0.5275508    0.5286734    0.5316555    0.5677539
:EIG00026:       0.5801119    0.6342590    0.6619928    0.6694797    0.7100580
:EIG00031:       0.7245253    0.7889325    0.8312421    0.8649060    1.0987283
:EIG00036:       1.1577435    1.2458723    1.2500957    1.3860950    1.4390587
:EIG00041:       1.4671153    1.5678932    1.6207547    1.6455958    1.7100421
:EIG00046:       1.7920325    1.7966181    1.8241432    1.8952322    1.9651360
 
       ********************************************************

:KPT   :      NUMBER OF K-POINTS:   288
:GAP (global)   :    0.0    Ry =     0.0   eV (metal)
         Bandranges (emin - emax) and occupancy:
:BAN00004:   4   -0.840947   -0.803516  2.00000000
:BAN00005:   5   -0.834989   -0.792685  2.00000000
:BAN00006:   6   -0.824957   -0.786032  2.00000000
:BAN00007:   7   -0.812359   -0.783921  2.00000000
:BAN00008:   8   -0.795074   -0.781815  2.00000000
:BAN00009:   9    0.268425    0.476154  2.00000000
:BAN00010:  10    0.370742    0.489917  2.00000000
:BAN00011:  11    0.461019    0.502723  2.00000000
:BAN00012:  12    0.490939    0.504992  2.00000000
:BAN00013:  13    0.497069    0.512504  1.50824372
:BAN00014:  14    0.502666    0.515956  0.49175627
:BAN00015:  15    0.506396    0.516692  0.00000000
:BAN00016:  16    0.509505    0.518379  0.00000000
:BAN00017:  17    0.512489    0.519887  0.00000000
:BAN00018:  18    0.513817    0.520250  0.00000000
:BAN00019:  19    0.516055    0.522552  0.00000000
        Energy to separate low and high energystates:    0.21843


:NOE  : NUMBER OF ELECTRONS          =   26.000

:FER  : F E R M I - ENERGY(TETRAH.M.)=   0.5060943793
:GMA  : POTENTIAL AND CHARGE CUT-OFF  12.00 Ry**.5

:POS001: ATOM   -1 X,Y,Z = 0.00000 0.89750 0.25000  MULT= 2  ZZ= 59.000  Pr1       

       LMMAX 16
       LM=   0 0  1 0  2 0  2 2  3 0  3 2  4 0  4 2  4 4  5 0  5 2  5 4  6 0  6 2  6 4  6 6

:CHA001: TOTAL VALENCE CHARGE INSIDE SPHERE   1 =   9.4868    (RMT=  2.3000 )
:PCS001: PARTIAL CHARGES SPHERE =  1 S,P,D,F,PX,PY,PZ,D-Z2,D-X2Y2,D-XY,D-XZ,D-YZ 
:QTL001: 1.9376 5.0259 0.4332 2.0901 1.6726 1.6731 1.6802 0.0790 0.0780 0.0985 0.0818 0.0959
        Q-s-low E-s-low   Q-p-low E-p-low   Q-d-low E-d-low   Q-f-low E-f-low
:EPL001:  1.8698 -2.1353    4.9690 -0.8112    0.0006 -0.8299    0.0002 -0.8375
        Q-s-hi  E-s-hi    Q-p-hi  E-p-hi    Q-d-hi  E-d-hi    Q-f-hi  E-f-hi 
:EPH001:  0.0678  0.4056    0.0569  0.4441    0.4325  0.4656    2.0899  0.4968

                      VXX         VYY         VZZ       UP TO R
:VZZ001:             3.34000     2.79647    -6.13647       2.300

:CHA  : TOTAL VALENCE CHARGE INSIDE UNIT CELL =      26.000000

:SUM  : SUM OF EIGENVALUES =         -13.589127030


        1.ATOM      Pr1                  14 CORE STATES
       CORE-FORCE in mRy/a.u. = |F|      Fx             Fy             Fz
:FCO001:   1.ATOM   1064.588402716478      0.000000000000      0.000000000000   1064.588402716478

:1S 001: 1S               -3067.100675314 Ry
:2S 001: 2S                -492.850465327 Ry
:2PP001: 2P*               -465.950397967 Ry
:2P 001: 2P                -430.552613904 Ry
:3S 001: 3S                -105.933251614 Ry
:3PP001: 3P*                -94.471450287 Ry
:3P 001: 3P                 -87.463322150 Ry
:3DD001: 3D*                -67.391330440 Ry
:3D 001: 3D                 -65.879645755 Ry
:4S 001: 4S                 -20.611973486 Ry
:4PP001: 4P*                -16.319250020 Ry
:4P 001: 4P                 -14.792464705 Ry
:4DD001: 4D*                 -7.726777286 Ry
:4D 001: 4D                  -7.457600755 Ry
:CINT001 Core Integral Atom   1   45.998476

       DENSITY AT NUCLEUS
        JATOM        VALENCE       SEMI-CORE          CORE           TOTAL
:RTO001:   1      645.477868        0.000000   656824.808166   657470.286034
     
       CHARGES OF NEW CHARGE DENSITY
:NTO   : INTERSTITIAL CHARGE =     7.026408
:NPC   : PW Pseudocharge     =    16.814426
:NTO001: CHARGE SPHERE  1    =    55.485272

:NEC01: NUCLEAR AND ELECTRONIC CHARGE    118.00000   117.99695
     
       CHARGES OF OLD CHARGE DENSITY
:OTO   : INTERSTITIAL CHARGE =     7.029491
:OPC   : PW Pseudocharge     =    16.821775
:OTO001: CHARGE SPHERE  1    =    55.485254

:NEC02: NUCLEAR AND ELECTRONIC CHARGE    118.00000   118.00000
     
       CONVERGENCE TEST
:DTO001: DIFFERENCE IN SPHERE  1 =  0.0000530

:DIS  :  CHARGE DISTANCE       ( 0.0000530 for atom    1 spin 1)      0.0000530
 PW Mixed is          580
 
******************************************************
* MULTISECANT MIXING VER9 RELEASE 10.4.0              *
* Standard Mode with controls                        *
* Fixed density scale                                *
* Regularization       1.000E-04                     *
* Trust Upper Limit    5.000E+00                     *
* Max Number of Memory Steps    8                    *
******************************************************
 
:PWTMP   4.6493E+02  1.9467E+02  5.6686E+02
:PLANE:  PW TOTAL      4.2541 DISTAN   1.67E-05  3.92E-04 %
:CHARG:  CLM/ATOM   1381.9363 DISTAN   9.15E-05  6.62E-06 %
 
Step History
        DMIX         DMIXT        Red     Pred      Trust     Lambda    MagRel    MagAbs     Beta
  8   9.5773E-02   9.5773E-02  7.15E-01  9.34E-01  9.63E-01  7.88E-01  3.41E-01  5.03E-02  1.00E+00
  9   2.3943E-01   2.3943E-01  3.88E-01  4.18E-01  1.28E+00  1.10E+00  5.33E-01  5.63E-02  1.00E+00
 10   1.7272E-01   1.7272E-01  6.02E-01  6.35E-01  1.71E+00  1.64E+00  1.70E-01  6.97E-03  1.00E+00
 11   2.3574E-01   2.3574E-01  3.19E-01  3.76E-01  2.28E+00  1.09E+00  3.76E-01  9.27E-03  1.00E+00
 12   1.1602E-01   1.1602E-01  7.44E-01  9.27E-01  3.04E+00  7.75E-01  3.79E-01  2.97E-03  1.00E+00
 13   2.9006E-01   2.9006E-01  2.83E-01  2.33E-01  4.06E+00  1.04E+00  7.52E-01  4.39E-03  1.00E+00
 14   1.3536E-01   1.3536E-01  2.87E-01  3.20E-01  5.41E+00  1.44E+00  7.91E-01  1.31E-03  9.63E-01
 15   2.1107E-01   2.1107E-01  8.58E-01  6.14E-01  7.22E+00  1.72E+00  4.51E-01  2.15E-04  1.00E+00
 16   2.2442E-01   2.2442E-01 -1.00E+00  2.53E-01  8.42E+00  1.00E+00  4.70E-01  1.91E-04  1.00E+00
:JACOBIANS    5.507E-01   3.235E+00
  
:NORMS:  1/Froebius, Min, Max, Used   0.6955E+00  0.4856E+00  0.9526E+00  0.9284E+00
:INFO :  Number of Memory Steps    8 Skipping    7
:INFO :  SLambda=    1.7399593458  Max    1.7399593458
:PREDicted Charge, CTotal, PW Trust    9.005E-06   1.801E-05   8.820E-05
:PREDicted DMix, Beta, BLim   2.6464E-03  1.0340E+00  6.7386E-01

Eigenvalues, unscaled except for SY+YY
   #     SY Real        SY Imag          SS             YY         SY+YY Real      SY+YY Imag
   1   2.503937E+00   0.000000E+00   2.361198E+00   2.739377E+00   7.084977E+00   0.000000E+00
   2   1.088971E+00   0.000000E+00   8.399226E-01   2.106072E+00   3.896906E+00   0.000000E+00
   3   6.948200E-01   0.000000E+00   4.207688E-01   1.404742E+00   2.633965E+00   0.000000E+00
   4   2.518616E-01   0.000000E+00   1.333769E-01   7.386871E-01   1.090544E+00   0.000000E+00
   5   4.011134E-03   0.000000E+00   8.352809E-02   5.984016E-01   8.690934E-01   0.000000E+00
   6   1.007522E-01   0.000000E+00   2.284139E-02   2.049977E-01   3.767777E-01   0.000000E+00
   7   7.797569E-02   0.000000E+00   7.465118E-03   1.697570E-01   3.397381E-01   0.000000E+00
   8   7.129651E-02   0.000000E+00   4.202415E-04   3.796625E-02   4.871349E-02   0.000000E+00
 
:INFO :  Singular value  7.091E+00 Weight  1.000E+00 Projection -1.836E-06
:INFO :  Singular value  3.902E+00 Weight  1.000E+00 Projection -2.345E-05
:INFO :  Singular value  2.634E+00 Weight  1.000E+00 Projection -1.827E-05
:INFO :  Singular value  1.093E+00 Weight  1.000E+00 Projection -2.315E-05
:INFO :  Singular value  8.671E-01 Weight  1.000E+00 Projection -6.659E-06
:INFO :  Singular value  3.772E-01 Weight  1.000E+00 Projection -7.309E-05
:INFO :  Singular value  3.386E-01 Weight  1.000E+00 Projection  3.683E-05
:INFO :  Singular value  4.870E-02 Weight  1.000E+00 Projection -1.123E-04
:RANK :  ACTIVE   8.00/8  = 100.00 % ; YY RANK   8.00/8  = 100.00 %
 
:BLIM :  VZERO Control Off
:TRUST:  Step 1.12E+01  Charge 7.32E-03 (e) CTO  2.44E-02 (e) PW  3.42E-02 (e)
:DIRM :  MEMORY  8/8  SCALE   1.000 RED  0.23 PRED  0.25 NEXT  0.71 
:TRAVE:  Charge 3.53E-05 (e) CTO  7.07E-05 (e) PW  9.37E-05 (e)
:DIRP :  |MSR1|= 1.503E-05 |PRATT|= 1.668E-05 ANGLE=  88.7 DEGREES
:DIRQ :  |MSR1|= 2.503E-05 |PRATT|= 9.152E-05 ANGLE=  42.0 DEGREES
:DIRT :  |MSR1|= 2.920E-05 |PRATT|= 9.302E-05 ANGLE=  51.1 DEGREES
:MIX  :   MSE1   REGULARIZATION:  2.74E-04 GREED: 0.10636  Newton 1.00  0.3139                
     
       CHARGES OF MIXED CHARGE DENSITY
:CTO   : INTERSTITIAL CHARGE =     7.029495
:CPC   : PW Pseudocharge     =    16.821792
:CTO001: CHARGE SPHERE  1    =    55.485252

:NEC03: NUCLEAR AND ELECTRONIC CHARGE    118.00000   118.00000

PW CHANGE     H    K    L      Current       Change    Residue
:PTO001:      0    0    0  4.20761541E-02  3.524E-08 -1.579E-07
:PTO003:      0    2    0  1.24406183E-02  1.343E-08 -7.846E-10
:PTO004:     -1    1    0  6.19694690E-02  1.014E-07 -1.874E-07
:PTO005:      0    2   -1 -7.24875603E-02 -1.352E-07  1.687E-07
:PTO006:      0    0   -2 -3.74815768E-02 -5.744E-08  1.097E-07
:PTO007:     -1    1   -1 -7.97559646E-02 -1.330E-07  2.311E-07
:PTO008:      0    2   -2 -1.35513843E-02 -5.877E-09  8.712E-08
:PTO009:     -1    1   -2 -7.11619852E-02 -1.738E-07  2.052E-07
:PTO011:     -1    3    0 -1.21056185E-02 -3.465E-08  2.708E-08
:PTO012:     -1    3   -1 -5.55078560E-02 -2.046E-07  1.300E-07
:PTO013:      0    4    0 -1.04905255E-02 -4.412E-08  4.843E-08
:PTO014:      0    2   -3  2.39447216E-02  1.199E-07 -2.688E-08

:ENE  : ********** TOTAL ENERGY IN Ry =       -36944.08719119

       TOTAL FORCE IN mRy/a.u. = |F|     Fx             Fy             Fz     with/without FOR in case.in2
:FOR001:   1.ATOM         31.250          0.000          0.000        -31.250 partial forces
       TOTAL FORCE WITH RESPECT TO GLOBAL CARTESIAN COORDINATES:
:FCA001:   1.ATOM                         0.000        -31.250          0.000 partial forces
       TOTAL FORCE WITH RESPECT TO THE GLOBAL COORDINATE SYSTEM:
:FGL001:   1.ATOM                 0.000000000   -31.249892371     0.000000000 partial forces
