
:LABEL1: Calculations in /home/ykent/GWIEN/example/Pr/aU/V14/case
:LABEL2: on didymium-2.cmpgroup.ameslab.gov at Fri Jul 10 13:23:19 CDT 2020
:LABEL3: using WIEN2k_19.1 (Release 25/6/2019) in /home/ykent/opt/src/WIEN2k_19.1
:LABEL4: using the command: run_lapw -cc 0.0001
 Flat Integration
 New Mode for Coulomb Integral
 Consistent 3/8+Simpson combinations
 Extension of core to zero
 LDM version in phi
 Fifth-order quadrature in outwin


            ---------
:ITE001:  1. ITERATION
            ---------

:NATO :    1 INDEPENDENT AND    2 TOTAL ATOMS IN UNITCELL
       SUBSTANCE: aU                                                          

       LATTICE                      = CXY 
:POT  : POTENTIAL OPTION EX_LDA EC_LDA VX_LDA VC_LDA
:LAT  : LATTICE CONSTANTS=  6.18760 12.55620 10.84003    1.571    1.571    1.571
:VOL  : UNIT CELL VOLUME =     421.09601
       MODE OF CALCULATION IS       = RELA
       NON-SPINPOLARIZED CALCULATION
:IFFT  : FFT-parameters:   48   96   90 Factor: 2.00


   CONVERGENCE PARAMETER FOR PSEUDOCHARGE: NCON=  9
   MAXIMAL VALUE OF RMT(JATOM)*ABSK(NKK) : RK  =27.59478


:VKCOUL :  VK-COUL convergence: 0.147E-06
       ATOMNUMBER=  1 Pr1        VCOUL-ZERO =  0.18220E+00
:EFG001:                        EFG         =    -0.03625   *10**21  V / m**2
                               V20  TOT/SRF=    -0.03140    -0.03967
                               V22  TOT/SRF=     0.00539     0.00648
                               V22M TOT/SRF=     0.00000     0.00000
                               V21  TOT/SRF=     0.00000     0.00000
                               V21M TOT/SRF=     0.00000     0.00000

              0.02352    0.00000    0.00000        0.02352    0.00000    0.00000
              0.00000    0.01273    0.00000        0.00000    0.01273    0.00000
              0.00000    0.00000   -0.03625        0.00000    0.00000   -0.03625

         MAIN DIRECTIONS OF THE EFG   1.0000  0.0000  0.0000
                                      0.0000  1.0000  0.0000
                                      0.0000  0.0000  1.0000
:ANG001:  ANGLE WITH OLD X-AXIS =         0.0

:ETA001:                         ASYMM. ETA =     0.29756


     HELLMANN-FEYNMAN-FORCE IN mRy/a.u. = |F|  Fx       Fy             Fz
:FHF001:   1.ATOM    410.064642956539      0.000000000000      0.000000000000   -410.064642956539

:FIT001: LUSE= 13 SIGMA OF V-XC FIT FOR ATOM  1  0.3965089E-05
:FIT001: LUSE= 13 SIGMA OF V-XC FIT FOR ATOM  1  0.3965089E-05
:DEN  : DENSITY INTEGRAL  =        -14168.26137394   (Ry)
       ELS_POTENTIAL_AT Z=0 and Z=0.5:   0.76624   0.76624
       ELS_POTENTIAL_AT Y=0 and Y=0.5:   0.04513   0.04513
:VZERO:v0,v0c,v0x   0.15743   0.76624  -0.60880 v5,v5c,v5x   0.15743   0.76624  -0.60880
:VZERY:v0,v0c,v0x  -0.76429   0.04513  -0.80942 v5,v5c,v5x  -0.76429   0.04513  -0.80942
:VZERX:v0,v0c,v0x  -1.14046  -0.37419  -0.76627 v5,v5c,v5x  -1.14046  -0.37419  -0.76627
:LMAX-WF:   10   Non-Spherical LMAX:   4

          ATOMIC SPHERE DEPENDENT PARAMETERS FOR ATOM  Pr1       
:e__0001: OVERALL ENERGY PARAMETER IS    0.3000
          OVERALL BASIS SET ON ATOM IS LAPW
:E0_0001: E( 0)=    0.3000
             APW+lo
:E0_0001: E( 0)=   -1.8974   E(BOTTOM)=   -2.538   E(TOP)=   -1.256  4  5   191
             LOCAL ORBITAL
:E1_0001: E( 1)=    0.7000
             APW+lo
:E1_0001: E( 1)=   -0.4307   E(BOTTOM)=   -1.395   E(TOP)=    0.534  3  4   198
             LOCAL ORBITAL
:E3_0001: E( 3)=    0.7696   E(BOTTOM)=    0.557   E(TOP)=    0.982  0  1   148
             APW+lo
:E2_0001: E( 2)=    0.3416   E(BOTTOM)=    0.342   E(TOP)= -200.000  2 -1    84
             APW+lo

       K=   0.06250   0.00000   0.06250            1
:RKM  : MATRIX SIZE   407LOs:  40  RKM= 8.48  WEIGHT= 4.00  PGR:    
       EIGENVALUES ARE:
:EIG00001:      -1.8803113   -1.8569325   -0.6361944   -0.5238729   -0.4993565
:EIG00006:      -0.4913997   -0.4827477   -0.4809351    0.5005010    0.6230360
:EIG00011:       0.7480340    0.7609921    0.7642596    0.7673096    0.7734322
:EIG00016:       0.7915119    0.7969282    0.7979360    0.8016422    0.8019702
:EIG00021:       0.8068592    0.8122685    0.8124797    0.8236184    0.8329339
:EIG00026:       0.8400982    0.9195779    0.9259996    0.9718800    0.9965472
:EIG00031:       1.0118785    1.1201259    1.1645259    1.2198004    1.5169779
:EIG00036:       1.5500864    1.6015111    1.6279852    1.7826267    1.8366515
:EIG00041:       1.9375510
       ********************************************************

:KPT   :      NUMBER OF K-POINTS:   288
:GAP (global)   :    0.0    Ry =     0.0   eV (metal)
         Bandranges (emin - emax) and occupancy:
:BAN00004:   4   -0.613039   -0.523873  2.00000000
:BAN00005:   5   -0.597254   -0.499356  2.00000000
:BAN00006:   6   -0.577032   -0.485802  2.00000000
:BAN00007:   7   -0.550797   -0.481824  2.00000000
:BAN00008:   8   -0.508387   -0.475834  2.00000000
:BAN00009:   9    0.494561    0.706200  2.00000000
:BAN00010:  10    0.603331    0.721560  2.00000000
:BAN00011:  11    0.649060    0.755662  2.00000000
:BAN00012:  12    0.705553    0.764929  2.00000000
:BAN00013:  13    0.733675    0.786464  1.59921267
:BAN00014:  14    0.755044    0.792412  0.40078733
:BAN00015:  15    0.769843    0.797636  0.00000000
:BAN00016:  16    0.778791    0.797930  0.00000000
:BAN00017:  17    0.786219    0.799159  0.00000000
:BAN00018:  18    0.790121    0.801097  0.00000000
:BAN00019:  19    0.794844    0.804705  0.00000000
        Energy to separate low and high energystates:    0.44456


:NOE  : NUMBER OF ELECTRONS          =   26.000

:FER  : F E R M I - ENERGY(TETRAH.M.)=   0.7695601492
:GMA  : POTENTIAL AND CHARGE CUT-OFF  12.00 Ry**.5

:POS001: ATOM   -1 X,Y,Z = 0.00000 0.89750 0.25000  MULT= 2  ZZ= 59.000  Pr1       

       LMMAX 16
       LM=   0 0  1 0  2 0  2 2  3 0  3 2  4 0  4 2  4 4  5 0  5 2  5 4  6 0  6 2  6 4  6 6

:CHA001: TOTAL VALENCE CHARGE INSIDE SPHERE   1 =   9.0899    (RMT=  2.3000 )
:PCS001: PARTIAL CHARGES SPHERE =  1 S,P,D,F,PX,PY,PZ,D-Z2,D-X2Y2,D-XY,D-XZ,D-YZ 
:QTL001: 1.9466 5.0095 0.7530 1.3802 1.6645 1.6662 1.6788 0.1458 0.1567 0.1458 0.1479 0.1568
        Q-s-low E-s-low   Q-p-low E-p-low   Q-d-low E-d-low   Q-f-low E-f-low
:EPL001:  1.8660 -1.8566    4.9101 -0.5446    0.0036 -0.5788    0.0010 -0.5898
        Q-s-hi  E-s-hi    Q-p-hi  E-p-hi    Q-d-hi  E-d-hi    Q-f-hi  E-f-hi 
:EPH001:  0.0806  0.6415    0.0994  0.6900    0.7495  0.6918    1.3792  0.7441

                      VXX         VYY         VZZ       UP TO R
:VZZ001:             5.13558     5.23005   -10.36563       2.300

:CHA  : TOTAL VALENCE CHARGE INSIDE UNIT CELL =      26.000000

:SUM  : SUM OF EIGENVALUES =          -6.988714095


        1.ATOM      Pr1                  14 CORE STATES
       CORE-FORCE in mRy/a.u. = |F|      Fx             Fy             Fz
:FCO001:   1.ATOM    333.034034567595      0.000000000000      0.000000000000    333.034034567595

:1S 001: 1S               -3066.773148087 Ry
:2S 001: 2S                -492.538876869 Ry
:2PP001: 2P*               -465.636498529 Ry
:2P 001: 2P                -430.239700209 Ry
:3S 001: 3S                -105.636709554 Ry
:3PP001: 3P*                -94.174105714 Ry
:3P 001: 3P                 -87.166746383 Ry
:3DD001: 3D*                -67.093041943 Ry
:3D 001: 3D                 -65.581624567 Ry
:4S 001: 4S                 -20.323690897 Ry
:4PP001: 4P*                -16.030851428 Ry
:4P 001: 4P                 -14.504075722 Ry
:4DD001: 4D*                 -7.438393611 Ry
:4D 001: 4D                  -7.169234914 Ry
:CINT001 Core Integral Atom   1   45.998455

       DENSITY AT NUCLEUS
        JATOM        VALENCE       SEMI-CORE          CORE           TOTAL
:RTO001:   1      648.524916        0.000000   656820.461716   657468.986632
     
       CHARGES OF NEW CHARGE DENSITY
:NTO   : INTERSTITIAL CHARGE =     7.820244
:NPC   : PW Pseudocharge     =    17.362821
:NTO001: CHARGE SPHERE  1    =    55.088333

:NEC01: NUCLEAR AND ELECTRONIC CHARGE    118.00000   117.99691
     
       CHARGES OF OLD CHARGE DENSITY
:OTO   : INTERSTITIAL CHARGE =     6.807308
:OPC   : PW Pseudocharge     =    15.883389
:OTO001: CHARGE SPHERE  1    =    55.596985

:NEC02: NUCLEAR AND ELECTRONIC CHARGE    118.00000   118.00128
     
       CONVERGENCE TEST
:DTO001: DIFFERENCE IN SPHERE  1 =  0.8428047

:DIS  :  CHARGE DISTANCE       ( 0.8428047 for atom    1 spin 1)      0.8428047
 PW Mixed is          446
 
******************************************************
* MULTISECANT MIXING VER9 RELEASE 10.4.0              *
* Standard Mode with controls                        *
* Fixed density scale                                *
* Regularization       1.000E-04                     *
* Trust Upper Limit    5.000E+00                     *
* Max Number of Memory Steps    8                    *
******************************************************
 
:PWTMP   3.1917E+02  1.9467E+02  4.2110E+02
:PLANE:  PW TOTAL      4.5346 DISTAN   5.83E-01  1.29E+01 %
:CHARG:  CLM/ATOM   1382.0522 DISTAN   1.27E+00  9.17E-02 %
 
Step History
        DMIX         DMIXT        Red     Pred      Trust     Lambda    MagRel    MagAbs     Beta
  1   3.5000E-02   3.5000E-02 -1.00E+00  1.00E+00 -1.00E+01  1.00E+00  3.50E-02  3.50E-02  1.00E+00
:INFO :  Note, Pratt in use
:TRUST:  Step 3.75E-02  Charge 7.50E-02 (e) CTO  2.50E-01 (e) PW  3.50E-01 (e)
:DIRM :  MEMORY  0/ 8 SCALE   1.000
Performing Pseudo Compensation
Final Pseudo Compensation Rescaling     1.00000E+00
:MIX  :   PRATT  REGULARIZATION:  1.00E-04 GREED: 0.02500                  
     
       CHARGES OF MIXED CHARGE DENSITY
:CTO   : INTERSTITIAL CHARGE =     6.831462
:CPC   : PW Pseudocharge     =    16.780711
:CTO001: CHARGE SPHERE  1    =    55.584269

:NEC03: NUCLEAR AND ELECTRONIC CHARGE    118.00000   118.00000

PW CHANGE     H    K    L      Current       Change    Residue
:PTO001:      0    0    0  5.60731327E-02  2.198E-03  5.953E-03
:PTO003:      0    2    0  1.47178733E-02  9.968E-04  2.125E-03
:PTO004:     -1    1    0  7.21103000E-02  5.314E-03  7.746E-03
:PTO005:      0    2   -1 -8.39835888E-02 -6.273E-03 -7.686E-03
:PTO006:      0    0   -2 -4.35774376E-02 -3.259E-03 -3.846E-03
:PTO007:     -1    1   -1 -9.06196413E-02 -7.384E-03 -7.622E-03
:PTO008:      0    2   -2 -1.45548667E-02 -1.485E-03 -1.702E-03
:PTO009:     -1    1   -2 -7.24667497E-02 -8.045E-03 -9.490E-03
:PTO011:     -1    3    0 -1.14339098E-02 -1.546E-03 -1.742E-03
:PTO012:     -1    3   -1 -5.07812888E-02 -7.643E-03 -9.676E-03
:PTO013:      0    4    0 -9.30714789E-03 -1.578E-03 -1.684E-03
:PTO014:      0    2   -3  2.09724538E-02  3.593E-03  4.550E-03

:ENE  : ********** TOTAL ENERGY IN Ry =       -36944.25158906

       TOTAL FORCE IN mRy/a.u. = |F|     Fx             Fy             Fz     with/without FOR in case.in2
:FOR001:   1.ATOM         77.031          0.000          0.000        -77.031 partial forces
       TOTAL FORCE WITH RESPECT TO GLOBAL CARTESIAN COORDINATES:
:FCA001:   1.ATOM                         0.000        -77.031          0.000 partial forces
       TOTAL FORCE WITH RESPECT TO THE GLOBAL COORDINATE SYSTEM:
:FGL001:   1.ATOM                 0.000000000   -77.030608389     0.000000000 partial forces
 Flat Integration
 New Mode for Coulomb Integral
 Consistent 3/8+Simpson combinations
 Extension of core to zero
 LDM version in phi
 Fifth-order quadrature in outwin


            ---------
:ITE002:  2. ITERATION
            ---------

:NATO :    1 INDEPENDENT AND    2 TOTAL ATOMS IN UNITCELL
       SUBSTANCE: aU                                                          

       LATTICE                      = CXY 
:POT  : POTENTIAL OPTION EX_LDA EC_LDA VX_LDA VC_LDA
:LAT  : LATTICE CONSTANTS=  6.18760 12.55620 10.84003    1.571    1.571    1.571
:VOL  : UNIT CELL VOLUME =     421.09601
       MODE OF CALCULATION IS       = RELA
       NON-SPINPOLARIZED CALCULATION
:IFFT  : FFT-parameters:   48   96   90 Factor: 2.00


   CONVERGENCE PARAMETER FOR PSEUDOCHARGE: NCON=  9
   MAXIMAL VALUE OF RMT(JATOM)*ABSK(NKK) : RK  =27.59478


:VKCOUL :  VK-COUL convergence: 0.873E-07
       ATOMNUMBER=  1 Pr1        VCOUL-ZERO =  0.18591E+00
:EFG001:                        EFG         =    -0.29546   *10**21  V / m**2
                               V20  TOT/SRF=    -0.25587    -0.03937
                               V22  TOT/SRF=     0.00379     0.00582
                               V22M TOT/SRF=     0.00000     0.00000
                               V21  TOT/SRF=     0.00000     0.00000
                               V21M TOT/SRF=     0.00000     0.00000

              0.15152    0.00000    0.00000        0.15152    0.00000    0.00000
              0.00000    0.14394    0.00000        0.00000    0.14394    0.00000
              0.00000    0.00000   -0.29546        0.00000    0.00000   -0.29546

         MAIN DIRECTIONS OF THE EFG   1.0000  0.0000  0.0000
                                      0.0000  1.0000  0.0000
                                      0.0000  0.0000  1.0000
:ANG001:  ANGLE WITH OLD X-AXIS =         0.0

:ETA001:                         ASYMM. ETA =     0.02565


     HELLMANN-FEYNMAN-FORCE IN mRy/a.u. = |F|  Fx       Fy             Fz
:FHF001:   1.ATOM    413.996871002418      0.000000000000      0.000000000000   -413.996871002418

:FIT001: LUSE= 13 SIGMA OF V-XC FIT FOR ATOM  1  0.4037405E-05
:FIT001: LUSE= 13 SIGMA OF V-XC FIT FOR ATOM  1  0.4037405E-05
:DEN  : DENSITY INTEGRAL  =        -14166.09936976   (Ry)
       ELS_POTENTIAL_AT Z=0 and Z=0.5:   0.77243   0.77243
       ELS_POTENTIAL_AT Y=0 and Y=0.5:   0.04885   0.04885
:VZERO:v0,v0c,v0x   0.16284   0.77243  -0.60959 v5,v5c,v5x   0.16284   0.77243  -0.60959
:VZERY:v0,v0c,v0x  -0.76309   0.04885  -0.81194 v5,v5c,v5x  -0.76309   0.04885  -0.81194
:VZERX:v0,v0c,v0x  -1.15277  -0.38044  -0.77233 v5,v5c,v5x  -1.15277  -0.38044  -0.77233
:LMAX-WF:   10   Non-Spherical LMAX:   4

          ATOMIC SPHERE DEPENDENT PARAMETERS FOR ATOM  Pr1       
:e__0001: OVERALL ENERGY PARAMETER IS    0.5000
          OVERALL BASIS SET ON ATOM IS LAPW
:E0_0001: E( 0)=    0.5000
             APW+lo
:E0_0001: E( 0)=   -1.9026   E(BOTTOM)=   -2.542   E(TOP)=   -1.263  4  5   187
             LOCAL ORBITAL
:E1_0001: E( 1)=    0.9000
             APW+lo
:E1_0001: E( 1)=   -0.4348   E(BOTTOM)=   -1.397   E(TOP)=    0.527  3  4   200
             LOCAL ORBITAL
:E3_0001: E( 3)=    0.7574   E(BOTTOM)=    0.547   E(TOP)=    0.968  0  1   127
             APW+lo
:E2_0001: E( 2)=    0.5000   E(BOTTOM)=    0.341   E(TOP)= -200.000  2 -1    87
             APW+lo

       K=   0.06250   0.00000   0.06250            1
:RKM  : MATRIX SIZE   407LOs:  40  RKM= 8.48  WEIGHT= 4.00  PGR:    
       EIGENVALUES ARE:
:EIG00001:      -1.8847797   -1.8616470   -0.6376118   -0.5265370   -0.5022080
:EIG00006:      -0.4942684   -0.4855192   -0.4839140    0.5040130    0.6260120
:EIG00011:       0.7434310    0.7524611    0.7544165    0.7582432    0.7635192
:EIG00016:       0.7802963    0.7858293    0.7867938    0.7904072    0.7932017
:EIG00021:       0.7968895    0.8008662    0.8025668    0.8113740    0.8249265
:EIG00026:       0.8346390    0.9187361    0.9267765    0.9729751    0.9976320
:EIG00031:       1.0125741    1.1210605    1.1647901    1.2197481    1.5189060
:EIG00036:       1.5513790    1.6037698    1.6291541    1.7853765    1.8396074
:EIG00041:       1.9399037    2.0367832    2.1369958    2.1505646
       ********************************************************

:KPT   :      NUMBER OF K-POINTS:   288
:GAP (global)   :    0.0    Ry =     0.0   eV (metal)
         Bandranges (emin - emax) and occupancy:
:BAN00005:   5   -0.599275   -0.502208  2.00000000
:BAN00006:   6   -0.579096   -0.488730  2.00000000
:BAN00007:   7   -0.553092   -0.484791  2.00000000
:BAN00008:   8   -0.511068   -0.478863  2.00000000
:BAN00009:   9    0.498092    0.705245  2.00000000
:BAN00010:  10    0.606469    0.721787  2.00000000
:BAN00011:  11    0.651562    0.753279  2.00000000
:BAN00012:  12    0.705890    0.759025  2.00000000
:BAN00013:  13    0.730203    0.775411  1.59706205
:BAN00014:  14    0.748139    0.782809  0.40292927
:BAN00015:  15    0.760754    0.786756  0.00000868
:BAN00016:  16    0.769618    0.787311  0.00000000
:BAN00017:  17    0.775394    0.787916  0.00000000
:BAN00018:  18    0.779850    0.789555  0.00000000
:BAN00019:  19    0.784172    0.793717  0.00000000
:BAN00020:  20    0.787774    0.800621  0.00000000
        Energy to separate low and high energystates:    0.44809


:NOE  : NUMBER OF ELECTRONS          =   26.000

:FER  : F E R M I - ENERGY(TETRAH.M.)=   0.7607768284
:GMA  : POTENTIAL AND CHARGE CUT-OFF  12.00 Ry**.5

:POS001: ATOM   -1 X,Y,Z = 0.00000 0.89750 0.25000  MULT= 2  ZZ= 59.000  Pr1       

       LMMAX 16
       LM=   0 0  1 0  2 0  2 2  3 0  3 2  4 0  4 2  4 4  5 0  5 2  5 4  6 0  6 2  6 4  6 6

:CHA001: TOTAL VALENCE CHARGE INSIDE SPHERE   1 =   9.2193    (RMT=  2.3000 )
:PCS001: PARTIAL CHARGES SPHERE =  1 S,P,D,F,PX,PY,PZ,D-Z2,D-X2Y2,D-XY,D-XZ,D-YZ 
:QTL001: 1.9454 5.0081 0.7060 1.5592 1.6647 1.6658 1.6776 0.1352 0.1418 0.1399 0.1398 0.1493
        Q-s-low E-s-low   Q-p-low E-p-low   Q-d-low E-d-low   Q-f-low E-f-low
:EPL001:  1.8668 -1.8613    4.9175 -0.5470    0.0035 -0.5811    0.0010 -0.5919
        Q-s-hi  E-s-hi    Q-p-hi  E-p-hi    Q-d-hi  E-d-hi    Q-f-hi  E-f-hi 
:EPH001:  0.0786  0.6417    0.0906  0.6866    0.7025  0.6888    1.5582  0.7378

                      VXX         VYY         VZZ       UP TO R
:VZZ001:             3.72538     5.02362    -8.74899       2.300

:CHA  : TOTAL VALENCE CHARGE INSIDE UNIT CELL =      26.000000

:SUM  : SUM OF EIGENVALUES =          -7.048916530


        1.ATOM      Pr1                  14 CORE STATES
       CORE-FORCE in mRy/a.u. = |F|      Fx             Fy             Fz
:FCO001:   1.ATOM    343.425125301152      0.000000000000      0.000000000000    343.425125301152

:1S 001: 1S               -3066.799931510 Ry
:2S 001: 2S                -492.565220064 Ry
:2PP001: 2P*               -465.662901181 Ry
:2P 001: 2P                -430.266076482 Ry
:3S 001: 3S                -105.662007079 Ry
:3PP001: 3P*                -94.199485759 Ry
:3P 001: 3P                 -87.191993682 Ry
:3DD001: 3D*                -67.118534752 Ry
:3D 001: 3D                 -65.607082655 Ry
:4S 001: 4S                 -20.342837492 Ry
:4PP001: 4P*                -16.049626055 Ry
:4P 001: 4P                 -14.522270555 Ry
:4DD001: 4D*                 -7.455553118 Ry
:4D 001: 4D                  -7.186195429 Ry
:CINT001 Core Integral Atom   1   45.998471

       DENSITY AT NUCLEUS
        JATOM        VALENCE       SEMI-CORE          CORE           TOTAL
:RTO001:   1      648.832506        0.000000   656821.813757   657470.646264
     
       CHARGES OF NEW CHARGE DENSITY
:NTO   : INTERSTITIAL CHARGE =     7.561416
:NPC   : PW Pseudocharge     =    17.279222
:NTO001: CHARGE SPHERE  1    =    55.217762

:NEC01: NUCLEAR AND ELECTRONIC CHARGE    118.00000   117.99694
     
       CHARGES OF OLD CHARGE DENSITY
:OTO   : INTERSTITIAL CHARGE =     6.831458
:OPC   : PW Pseudocharge     =    16.780714
:OTO001: CHARGE SPHERE  1    =    55.584269

:NEC02: NUCLEAR AND ELECTRONIC CHARGE    118.00000   118.00000
     
       CONVERGENCE TEST
:DTO001: DIFFERENCE IN SPHERE  1 =  0.6041676

:DIS  :  CHARGE DISTANCE       ( 0.6041676 for atom    1 spin 1)      0.6041676
 PW Mixed is          446
 
******************************************************
* MULTISECANT MIXING VER9 RELEASE 10.4.0              *
* Slow Mode, cautious                                *
* Fixed density scale                                *
* Regularization       1.000E-04                     *
* Step Trust Radius    0.75000                       *
* Trust Upper Limit    2.000E+00                     *
* Max Number of Memory Steps   12                    *
******************************************************
 
:PWTMP   3.1917E+02  1.9467E+02  4.2110E+02
:PLANE:  PW TOTAL      4.8949 DISTAN   1.88E-01  3.84E+00 %
:CHARG:  CLM/ATOM   1382.0471 DISTAN   9.69E-01  7.01E-02 %
 
Step History
        DMIX         DMIXT        Red     Pred      Trust     Lambda    MagRel    MagAbs     Beta
  1   3.5000E-02   3.5000E-02 -1.00E+00  1.00E+00 -1.00E+01  1.00E+00  3.50E-02  3.50E-02  1.00E+00
  2   2.5000E-02   2.5000E-02 -1.00E+00  1.00E+00 -1.00E+01  1.00E+00  2.50E-02  3.49E-02  1.00E+00
:JACOBIANS    3.060E-01   1.644E-02
  
:TRUST:  Step 3.95E-02  Charge 7.50E-02 (e) CTO  2.50E-01 (e) PW  3.50E-01 (e)
:DIRM :  MEMORY  1/12 SCALE   1.000
:MIX  :   PRATT  REGULARIZATION:  1.00E-04 GREED: 0.03948  Expand 1.58  0.0395                
     
       CHARGES OF MIXED CHARGE DENSITY
:CTO   : INTERSTITIAL CHARGE =     6.857593
:CPC   : PW Pseudocharge     =    17.705790
:CTO001: CHARGE SPHERE  1    =    55.571203

:NEC03: NUCLEAR AND ELECTRONIC CHARGE    118.00000   118.00000

PW CHANGE     H    K    L      Current       Change    Residue
:PTO001:      0    0    0  5.83320256E-02  2.259E-03  2.941E-03
:PTO003:      0    2    0  1.57420876E-02  1.024E-03  1.066E-03
:PTO004:     -1    1    0  7.75706860E-02  5.460E-03  2.379E-03
:PTO005:      0    2   -1 -9.04295992E-02 -6.446E-03 -1.383E-03
:PTO006:      0    0   -2 -4.69256602E-02 -3.348E-03 -5.842E-04
:PTO007:     -1    1   -1 -9.82068559E-02 -7.587E-03 -3.715E-04
:PTO008:      0    2   -2 -1.60809284E-02 -1.526E-03 -2.241E-04
:PTO009:     -1    1   -2 -8.07324869E-02 -8.266E-03 -1.628E-03
:PTO011:     -1    3    0 -1.30226537E-02 -1.589E-03 -2.237E-04
:PTO012:     -1    3   -1 -5.86348947E-02 -7.854E-03 -2.119E-03
:PTO013:      0    4    0 -1.09283977E-02 -1.621E-03 -1.121E-04
:PTO014:      0    2   -3  2.46639428E-02  3.691E-03  9.451E-04

:ENE  : ********** TOTAL ENERGY IN Ry =       -36944.23108857

       TOTAL FORCE IN mRy/a.u. = |F|     Fx             Fy             Fz     with/without FOR in case.in2
:FOR001:   1.ATOM         70.572          0.000          0.000        -70.572 partial forces
       TOTAL FORCE WITH RESPECT TO GLOBAL CARTESIAN COORDINATES:
:FCA001:   1.ATOM                         0.000        -70.572          0.000 partial forces
       TOTAL FORCE WITH RESPECT TO THE GLOBAL COORDINATE SYSTEM:
:FGL001:   1.ATOM                 0.000000000   -70.571745701     0.000000000 partial forces
 Flat Integration
 New Mode for Coulomb Integral
 Consistent 3/8+Simpson combinations
 Extension of core to zero
 LDM version in phi
 Fifth-order quadrature in outwin


            ---------
:ITE003:  3. ITERATION
            ---------

:NATO :    1 INDEPENDENT AND    2 TOTAL ATOMS IN UNITCELL
       SUBSTANCE: aU                                                          

       LATTICE                      = CXY 
:POT  : POTENTIAL OPTION EX_LDA EC_LDA VX_LDA VC_LDA
:LAT  : LATTICE CONSTANTS=  6.18760 12.55620 10.84003    1.571    1.571    1.571
:VOL  : UNIT CELL VOLUME =     421.09601
       MODE OF CALCULATION IS       = RELA
       NON-SPINPOLARIZED CALCULATION
:IFFT  : FFT-parameters:   48   96   90 Factor: 2.00


   CONVERGENCE PARAMETER FOR PSEUDOCHARGE: NCON=  9
   MAXIMAL VALUE OF RMT(JATOM)*ABSK(NKK) : RK  =27.59478


:VKCOUL :  VK-COUL convergence: 0.902E-07
       ATOMNUMBER=  1 Pr1        VCOUL-ZERO =  0.18975E+00
:EFG001:                        EFG         =    -0.56179   *10**21  V / m**2
                               V20  TOT/SRF=    -0.48652    -0.03907
                               V22  TOT/SRF=     0.00214     0.00515
                               V22M TOT/SRF=     0.00000     0.00000
                               V21  TOT/SRF=     0.00000     0.00000
                               V21M TOT/SRF=     0.00000     0.00000

              0.28303    0.00000    0.00000        0.28303    0.00000    0.00000
              0.00000    0.27876    0.00000        0.00000    0.27876    0.00000
              0.00000    0.00000   -0.56179        0.00000    0.00000   -0.56179

         MAIN DIRECTIONS OF THE EFG   1.0000  0.0000  0.0000
                                      0.0000  1.0000  0.0000
                                      0.0000  0.0000  1.0000
:ANG001:  ANGLE WITH OLD X-AXIS =         0.0

:ETA001:                         ASYMM. ETA =     0.00760


     HELLMANN-FEYNMAN-FORCE IN mRy/a.u. = |F|  Fx       Fy             Fz
:FHF001:   1.ATOM    418.088935777509      0.000000000000      0.000000000000   -418.088935777509

:FIT001: LUSE= 13 SIGMA OF V-XC FIT FOR ATOM  1  0.4201442E-05
:FIT001: LUSE= 13 SIGMA OF V-XC FIT FOR ATOM  1  0.4201442E-05
:DEN  : DENSITY INTEGRAL  =        -14163.88167927   (Ry)
       ELS_POTENTIAL_AT Z=0 and Z=0.5:   0.77894   0.77894
       ELS_POTENTIAL_AT Y=0 and Y=0.5:   0.05268   0.05268
:VZERO:v0,v0c,v0x   0.16849   0.77894  -0.61045 v5,v5c,v5x   0.16849   0.77894  -0.61045
:VZERY:v0,v0c,v0x  -0.76185   0.05268  -0.81453 v5,v5c,v5x  -0.76185   0.05268  -0.81453
:VZERX:v0,v0c,v0x  -1.16514  -0.38693  -0.77820 v5,v5c,v5x  -1.16514  -0.38693  -0.77820
:LMAX-WF:   10   Non-Spherical LMAX:   4

          ATOMIC SPHERE DEPENDENT PARAMETERS FOR ATOM  Pr1       
:e__0001: OVERALL ENERGY PARAMETER IS    0.5405
          OVERALL BASIS SET ON ATOM IS LAPW
:E0_0001: E( 0)=    0.5405
             APW+lo
:E0_0001: E( 0)=   -1.9079   E(BOTTOM)=   -2.545   E(TOP)=   -1.270  4  5   192
             LOCAL ORBITAL
:E1_0001: E( 1)=    0.9405
             APW+lo
:E1_0001: E( 1)=   -0.4391   E(BOTTOM)=   -1.399   E(TOP)=    0.521  3  4   198
             LOCAL ORBITAL
:E3_0001: E( 3)=    0.7450   E(BOTTOM)=    0.537   E(TOP)=    0.953  0  1   119
             APW+lo
:E2_0001: E( 2)=    0.5405   E(BOTTOM)=    0.340   E(TOP)= -200.000  2 -1    84
             APW+lo

       K=   0.06250   0.00000   0.06250            1
:RKM  : MATRIX SIZE   407LOs:  40  RKM= 8.48  WEIGHT= 4.00  PGR:    
       EIGENVALUES ARE:
:EIG00001:      -1.8893549   -1.8664740   -0.6390440   -0.5292475   -0.5051110
:EIG00006:      -0.4971915   -0.4883405   -0.4869497    0.5077273    0.6291079
:EIG00011:       0.7373222    0.7432066    0.7441303    0.7484192    0.7532560
:EIG00016:       0.7686905    0.7742334    0.7750687    0.7784478    0.7821764
:EIG00021:       0.7865165    0.7895583    0.7916725    0.7988053    0.8187393
:EIG00026:       0.8315437    0.9184185    0.9278557    0.9743020    0.9989451
:EIG00031:       1.0134996    1.1222120    1.1652816    1.2199432    1.5210976
:EIG00036:       1.5529611    1.6063262    1.6307111    1.7884064    1.8428790
:EIG00041:       1.9425278    2.0395079    2.1393680    2.1529755
       ********************************************************

:KPT   :      NUMBER OF K-POINTS:   288
:GAP (global)   :    0.0    Ry =     0.0   eV (metal)
         Bandranges (emin - emax) and occupancy:
:BAN00005:   5   -0.601325   -0.505111  2.00000000
:BAN00006:   6   -0.581192   -0.491713  2.00000000
:BAN00007:   7   -0.555424   -0.487815  2.00000000
:BAN00008:   8   -0.513777   -0.481949  2.00000000
:BAN00009:   9    0.501826    0.703439  2.00000000
:BAN00010:  10    0.609772    0.720506  2.00000000
:BAN00011:  11    0.654071    0.746695  2.00000000
:BAN00012:  12    0.705607    0.751198  2.00000000
:BAN00013:  13    0.725807    0.763984  1.56912227
:BAN00014:  14    0.740395    0.772201  0.43029231
:BAN00015:  15    0.751290    0.774902  0.00058756
:BAN00016:  16    0.759609    0.775771  0.00000000
:BAN00017:  17    0.764133    0.776950  0.00000000
:BAN00018:  18    0.768697    0.777768  0.00000000
:BAN00019:  19    0.773169    0.782126  0.00000000
:BAN00020:  20    0.776677    0.788935  0.00000000
        Energy to separate low and high energystates:    0.45183


:NOE  : NUMBER OF ELECTRONS          =   26.000

:FER  : F E R M I - ENERGY(TETRAH.M.)=   0.7514300168
:GMA  : POTENTIAL AND CHARGE CUT-OFF  12.00 Ry**.5

:POS001: ATOM   -1 X,Y,Z = 0.00000 0.89750 0.25000  MULT= 2  ZZ= 59.000  Pr1       

       LMMAX 16
       LM=   0 0  1 0  2 0  2 2  3 0  3 2  4 0  4 2  4 4  5 0  5 2  5 4  6 0  6 2  6 4  6 6

:CHA001: TOTAL VALENCE CHARGE INSIDE SPHERE   1 =   9.3593    (RMT=  2.3000 )
:PCS001: PARTIAL CHARGES SPHERE =  1 S,P,D,F,PX,PY,PZ,D-Z2,D-X2Y2,D-XY,D-XZ,D-YZ 
:QTL001: 1.9441 5.0067 0.6564 1.7515 1.6650 1.6655 1.6763 0.1245 0.1275 0.1333 0.1308 0.1403
        Q-s-low E-s-low   Q-p-low E-p-low   Q-d-low E-d-low   Q-f-low E-f-low
:EPL001:  1.8677 -1.8662    4.9251 -0.5494    0.0034 -0.5833    0.0010 -0.5940
        Q-s-hi  E-s-hi    Q-p-hi  E-p-hi    Q-d-hi  E-d-hi    Q-f-hi  E-f-hi 
:EPH001:  0.0764  0.6419    0.0816  0.6830    0.6530  0.6858    1.7505  0.7306

                      VXX         VYY         VZZ       UP TO R
:VZZ001:             2.38998     4.62609    -7.01607       2.300

:CHA  : TOTAL VALENCE CHARGE INSIDE UNIT CELL =      26.000002

:SUM  : SUM OF EIGENVALUES =          -7.115671265


        1.ATOM      Pr1                  14 CORE STATES
       CORE-FORCE in mRy/a.u. = |F|      Fx             Fy             Fz
:FCO001:   1.ATOM    354.149928413312      0.000000000000      0.000000000000    354.149928413312

:1S 001: 1S               -3066.827431442 Ry
:2S 001: 2S                -492.592267664 Ry
:2PP001: 2P*               -465.690009874 Ry
:2P 001: 2P                -430.293158070 Ry
:3S 001: 3S                -105.687980256 Ry
:3PP001: 3P*                -94.225543732 Ry
:3P 001: 3P                 -87.217915262 Ry
:3DD001: 3D*                -67.144708604 Ry
:3D 001: 3D                 -65.633220833 Ry
:4S 001: 4S                 -20.362491967 Ry
:4PP001: 4P*                -16.068898840 Ry
:4P 001: 4P                 -14.540947954 Ry
:4DD001: 4D*                 -7.473169181 Ry
:4D 001: 4D                  -7.203607256 Ry
:CINT001 Core Integral Atom   1   45.998487

       DENSITY AT NUCLEUS
        JATOM        VALENCE       SEMI-CORE          CORE           TOTAL
:RTO001:   1      649.083323        0.000000   656823.202502   657472.285825
     
       CHARGES OF NEW CHARGE DENSITY
:NTO   : INTERSTITIAL CHARGE =     7.281309
:NPC   : PW Pseudocharge     =    17.191017
:NTO001: CHARGE SPHERE  1    =    55.357833

:NEC01: NUCLEAR AND ELECTRONIC CHARGE    118.00000   117.99697
     
       CHARGES OF OLD CHARGE DENSITY
:OTO   : INTERSTITIAL CHARGE =     6.857593
:OPC   : PW Pseudocharge     =    17.705790
:OTO001: CHARGE SPHERE  1    =    55.571203

:NEC02: NUCLEAR AND ELECTRONIC CHARGE    118.00000   118.00000
     
       CONVERGENCE TEST
:DTO001: DIFFERENCE IN SPHERE  1 =  0.3512064

:DIS  :  CHARGE DISTANCE       ( 0.3512064 for atom    1 spin 1)      0.3512064
 PW Mixed is          446
 
******************************************************
* MULTISECANT MIXING VER9 RELEASE 10.4.0              *
* Standard Mode with controls                        *
* Fixed density scale                                *
* Regularization       1.000E-04                     *
* Trust Upper Limit    5.000E+00                     *
* Max Number of Memory Steps    8                    *
******************************************************
 
:PWTMP   3.1917E+02  1.9467E+02  4.2110E+02
:PLANE:  PW TOTAL      5.2772 DISTAN   3.71E-01  7.03E+00 %
:CHARG:  CLM/ATOM   1382.0418 DISTAN   6.98E-01  5.05E-02 %
 
Step History
        DMIX         DMIXT        Red     Pred      Trust     Lambda    MagRel    MagAbs     Beta
  1   3.5000E-02   3.5000E-02 -1.00E+00  1.00E+00 -1.00E+01  1.00E+00  3.50E-02  3.50E-02  1.00E+00
  2   2.5000E-02   2.5000E-02  7.08E-01  1.00E+00 -1.00E+01  1.00E+00  2.50E-02  3.49E-02  1.00E+00
  3   3.9482E-02   3.9482E-02 -1.00E+00  1.00E+00 -1.00E+01  1.00E+00  3.95E-02  3.90E-02  1.00E+00
:JACOBIANS    4.746E-01   2.287E-02
  
:NORMS:  1/Froebius, Min, Max, Used   0.7674E+00  0.3940E+00  0.7880E+00  0.7674E+00
:INFO :  Number of Memory Steps    2 Skipping    0
:INFO :  SLambda=    0.0127698080  Max    0.0127698080
:PREDicted Charge, CTotal, PW Trust    1.229E-02   2.458E-02   4.137E-01
:PREDicted DMix, Beta, BLim   6.5193E-02  9.1996E-01  7.6201E-01

Eigenvalues, unscaled except for SY+YY
   #     SY Real        SY Imag          SS             YY         SY+YY Real      SY+YY Imag
   1   1.255542E+00   0.000000E+00   1.177846E+00   1.999879E+00   2.015912E+00   0.000000E+00
   2   0.000000E+00   0.000000E+00   0.000000E+00   1.206476E-04   1.208925E-04   0.000000E+00
 
:INFO :  Singular value  2.016E+00 Weight  1.000E+00 Projection  2.682E-03
:INFO :  Singular value  1.209E-04 Weight  2.676E-01 Projection -8.994E+00
:RANK :  ACTIVE   1.27/2  =  63.38 % ; YY RANK   1.27/2  =  63.34 %
 
:DLIM :  Beta Active  9.400E-01
:BLIM :  VZERO Control Off
:TRUST:  Step 2.89E-01  Charge 7.50E-02 (e) CTO  2.50E-01 (e) PW  3.85E-01 (e)
:DIRM :  MEMORY  2/8  SCALE   1.000 RED  0.80 PRED  1.00 NEXT  0.95 BETA  0.94
:TRAVE:  Charge 8.31E-03 (e) CTO  1.66E-02 (e) PW  4.15E-02 (e)
:DIRP :  |MSR1|= 5.704E-02 |PRATT|= 3.709E-01 ANGLE=  13.3 DEGREES
:DIRQ :  |MSR1|= 3.113E-02 |PRATT|= 6.985E-01 ANGLE=   9.0 DEGREES
:DIRT :  |MSR1|= 6.499E-02 |PRATT|= 7.908E-01 ANGLE=  35.1 DEGREES
:MIX  :   MSD1   REGULARIZATION:  2.00E-04 GREED: 0.04997  Newton 1.00  0.0822                
     
       CHARGES OF MIXED CHARGE DENSITY
:CTO   : INTERSTITIAL CHARGE =     6.874207
:CPC   : PW Pseudocharge     =    17.599469
:CTO001: CHARGE SPHERE  1    =    55.562897

:NEC03: NUCLEAR AND ELECTRONIC CHARGE    118.00000   118.00000

PW CHANGE     H    K    L      Current       Change    Residue
:PTO001:      0    0    0  5.81189934E-02 -2.130E-04 -1.921E-04
:PTO003:      0    2    0  1.56581215E-02 -8.397E-05 -1.996E-06
:PTO004:     -1    1    0  7.69351310E-02 -6.356E-04 -3.143E-03
:PTO005:      0    2   -1 -8.96243977E-02  8.052E-04  5.056E-03
:PTO006:      0    0   -2 -4.64996716E-02  4.260E-04  2.752E-03
:PTO007:     -1    1   -1 -9.71878738E-02  1.019E-03  7.085E-03
:PTO008:      0    2   -2 -1.58777792E-02  2.031E-04  1.311E-03
:PTO009:     -1    1   -2 -7.96809230E-02  1.052E-03  6.471E-03
:PTO011:     -1    3    0 -1.28098717E-02  2.128E-04  1.359E-03
:PTO012:     -1    3   -1 -5.76586701E-02  9.762E-04  5.671E-03
:PTO013:      0    4    0 -1.07161465E-02  2.123E-04  1.489E-03
:PTO014:      0    2   -3  2.42063539E-02 -4.576E-04 -2.751E-03

:ENE  : ********** TOTAL ENERGY IN Ry =       -36944.21697527

       TOTAL FORCE IN mRy/a.u. = |F|     Fx             Fy             Fz     with/without FOR in case.in2
:FOR001:   1.ATOM         63.939          0.000          0.000        -63.939 partial forces
       TOTAL FORCE WITH RESPECT TO GLOBAL CARTESIAN COORDINATES:
:FCA001:   1.ATOM                         0.000        -63.939          0.000 partial forces
       TOTAL FORCE WITH RESPECT TO THE GLOBAL COORDINATE SYSTEM:
:FGL001:   1.ATOM                 0.000000000   -63.939007364     0.000000000 partial forces
 Flat Integration
 New Mode for Coulomb Integral
 Consistent 3/8+Simpson combinations
 Extension of core to zero
 LDM version in phi
 Fifth-order quadrature in outwin


            ---------
:ITE004:  4. ITERATION
            ---------

:NATO :    1 INDEPENDENT AND    2 TOTAL ATOMS IN UNITCELL
       SUBSTANCE: aU                                                          

       LATTICE                      = CXY 
:POT  : POTENTIAL OPTION EX_LDA EC_LDA VX_LDA VC_LDA
:LAT  : LATTICE CONSTANTS=  6.18760 12.55620 10.84003    1.571    1.571    1.571
:VOL  : UNIT CELL VOLUME =     421.09601
       MODE OF CALCULATION IS       = RELA
       NON-SPINPOLARIZED CALCULATION
:IFFT  : FFT-parameters:   48   96   90 Factor: 2.00


   CONVERGENCE PARAMETER FOR PSEUDOCHARGE: NCON=  9
   MAXIMAL VALUE OF RMT(JATOM)*ABSK(NKK) : RK  =27.59478


:VKCOUL :  VK-COUL convergence: 0.880E-07
       ATOMNUMBER=  1 Pr1        VCOUL-ZERO =  0.18922E+00
:EFG001:                        EFG         =    -0.85189   *10**21  V / m**2
                               V20  TOT/SRF=    -0.73776    -0.03806
                               V22  TOT/SRF=    -0.01163     0.00428
                               V22M TOT/SRF=     0.00000     0.00000
                               V21  TOT/SRF=     0.00000     0.00000
                               V21M TOT/SRF=     0.00000     0.00000

              0.41431    0.00000    0.00000        0.41431    0.00000    0.00000
              0.00000    0.43758    0.00000        0.00000    0.43758    0.00000
              0.00000    0.00000   -0.85189        0.00000    0.00000   -0.85189

         MAIN DIRECTIONS OF THE EFG   1.0000  0.0000  0.0000
                                      0.0000  1.0000  0.0000
                                      0.0000  0.0000  1.0000
:ANG001:  ANGLE WITH OLD X-AXIS =         0.0

:ETA001:                         ASYMM. ETA =     0.02732


     HELLMANN-FEYNMAN-FORCE IN mRy/a.u. = |F|  Fx       Fy             Fz
:FHF001:   1.ATOM    425.781624295776      0.000000000000      0.000000000000   -425.781624295776

:FIT001: LUSE= 13 SIGMA OF V-XC FIT FOR ATOM  1  0.4674902E-05
:FIT001: LUSE= 13 SIGMA OF V-XC FIT FOR ATOM  1  0.4674902E-05
:DEN  : DENSITY INTEGRAL  =        -14162.12531596   (Ry)
       ELS_POTENTIAL_AT Z=0 and Z=0.5:   0.78019   0.78019
       ELS_POTENTIAL_AT Y=0 and Y=0.5:   0.05334   0.05334
:VZERO:v0,v0c,v0x   0.16918   0.78019  -0.61101 v5,v5c,v5x   0.16918   0.78019  -0.61101
:VZERY:v0,v0c,v0x  -0.76157   0.05334  -0.81491 v5,v5c,v5x  -0.76157   0.05334  -0.81491
:VZERX:v0,v0c,v0x  -1.16472  -0.38660  -0.77811 v5,v5c,v5x  -1.16472  -0.38660  -0.77811
:LMAX-WF:   10   Non-Spherical LMAX:   4

          ATOMIC SPHERE DEPENDENT PARAMETERS FOR ATOM  Pr1       
:e__0001: OVERALL ENERGY PARAMETER IS    0.5478
          OVERALL BASIS SET ON ATOM IS LAPW
:E0_0001: E( 0)=    0.5478
             APW+lo
:E0_0001: E( 0)=   -1.9145   E(BOTTOM)=   -2.551   E(TOP)=   -1.278  4  5   193
             LOCAL ORBITAL
:E1_0001: E( 1)=    0.9478
             APW+lo
:E1_0001: E( 1)=   -0.4450   E(BOTTOM)=   -1.404   E(TOP)=    0.514  3  4   192
             LOCAL ORBITAL
:E3_0001: E( 3)=    0.7339   E(BOTTOM)=    0.527   E(TOP)=    0.941  0  1   124
             APW+lo
:E2_0001: E( 2)=    0.5478   E(BOTTOM)=    0.336   E(TOP)= -200.000  2 -1    86
             APW+lo

       K=   0.06250   0.00000   0.06250            1
:RKM  : MATRIX SIZE   407LOs:  40  RKM= 8.48  WEIGHT= 4.00  PGR:    
       EIGENVALUES ARE:
:EIG00001:      -1.8954480   -1.8727489   -0.6428743   -0.5343653   -0.5103477
:EIG00006:      -0.5021700   -0.4931425   -0.4920197    0.5070222    0.6279205
:EIG00011:       0.7297892    0.7341737    0.7344356    0.7386811    0.7435190
:EIG00016:       0.7582518    0.7638074    0.7644034    0.7676577    0.7715054
:EIG00021:       0.7763132    0.7791448    0.7809888    0.7876906    0.8126886
:EIG00026:       0.8275206    0.9153917    0.9254522    0.9721413    0.9966908
:EIG00031:       1.0109458    1.1200025    1.1625659    1.2170477    1.5194030
:EIG00036:       1.5508947    1.6048247    1.6286737    1.7872442    1.8421166
:EIG00041:       1.9412500    2.0382982    2.1377213    2.1516670
       ********************************************************

:KPT   :      NUMBER OF K-POINTS:   288
:GAP (global)   :    0.0    Ry =     0.0   eV (metal)
         Bandranges (emin - emax) and occupancy:
:BAN00004:   4   -0.621036   -0.534365  2.00000000
:BAN00005:   5   -0.605746   -0.510348  2.00000000
:BAN00006:   6   -0.585731   -0.496731  2.00000000
:BAN00007:   7   -0.560210   -0.492866  2.00000000
:BAN00008:   8   -0.518599   -0.487050  2.00000000
:BAN00009:   9    0.501133    0.698711  2.00000000
:BAN00010:  10    0.608800    0.715472  2.00000000
:BAN00011:  11    0.652402    0.737832  2.00000000
:BAN00012:  12    0.701971    0.742221  1.99998921
:BAN00013:  13    0.719343    0.753579  1.54315050
:BAN00014:  14    0.732041    0.761600  0.45686029
:BAN00015:  15    0.742154    0.763895  0.00000000
:BAN00016:  16    0.749799    0.764728  0.00000000
:BAN00017:  17    0.753972    0.766483  0.00000000
:BAN00018:  18    0.758362    0.767584  0.00000000
:BAN00019:  19    0.762602    0.771458  0.00000000
        Energy to separate low and high energystates:    0.45113


:NOE  : NUMBER OF ELECTRONS          =   26.000

:FER  : F E R M I - ENERGY(TETRAH.M.)=   0.7421033799
:GMA  : POTENTIAL AND CHARGE CUT-OFF  12.00 Ry**.5

:POS001: ATOM   -1 X,Y,Z = 0.00000 0.89750 0.25000  MULT= 2  ZZ= 59.000  Pr1       

       LMMAX 16
       LM=   0 0  1 0  2 0  2 2  3 0  3 2  4 0  4 2  4 4  5 0  5 2  5 4  6 0  6 2  6 4  6 6

:CHA001: TOTAL VALENCE CHARGE INSIDE SPHERE   1 =   9.4532    (RMT=  2.3000 )
:PCS001: PARTIAL CHARGES SPHERE =  1 S,P,D,F,PX,PY,PZ,D-Z2,D-X2Y2,D-XY,D-XZ,D-YZ 
:QTL001: 1.9432 5.0061 0.6233 1.8801 1.6652 1.6653 1.6755 0.1177 0.1181 0.1289 0.1245 0.1341
        Q-s-low E-s-low   Q-p-low E-p-low   Q-d-low E-d-low   Q-f-low E-f-low
:EPL001:  1.8683 -1.8725    4.9301 -0.5540    0.0034 -0.5875    0.0010 -0.5982
        Q-s-hi  E-s-hi    Q-p-hi  E-p-hi    Q-d-hi  E-d-hi    Q-f-hi  E-f-hi 
:EPH001:  0.0749  0.6389    0.0760  0.6776    0.6199  0.6806    1.8792  0.7227

                      VXX         VYY         VZZ       UP TO R
:VZZ001:             1.97045     4.44267    -6.41312       2.300

:CHA  : TOTAL VALENCE CHARGE INSIDE UNIT CELL =      26.000000

:SUM  : SUM OF EIGENVALUES =          -7.242638762


        1.ATOM      Pr1                  14 CORE STATES
       CORE-FORCE in mRy/a.u. = |F|      Fx             Fy             Fz
:FCO001:   1.ATOM    373.426556065188      0.000000000000      0.000000000000    373.426556065188

:1S 001: 1S               -3066.848021634 Ry
:2S 001: 2S                -492.612222929 Ry
:2PP001: 2P*               -465.710037143 Ry
:2P 001: 2P                -430.313151884 Ry
:3S 001: 3S                -105.707229524 Ry
:3PP001: 3P*                -94.244847350 Ry
:3P 001: 3P                 -87.237134790 Ry
:3DD001: 3D*                -67.164068808 Ry
:3D 001: 3D                 -65.652559181 Ry
:4S 001: 4S                 -20.377998804 Ry
:4PP001: 4P*                -16.084178827 Ry
:4P 001: 4P                 -14.555875331 Ry
:4DD001: 4D*                 -7.487451835 Ry
:4D 001: 4D                  -7.217767359 Ry
:CINT001 Core Integral Atom   1   45.998496

       DENSITY AT NUCLEUS
        JATOM        VALENCE       SEMI-CORE          CORE           TOTAL
:RTO001:   1      649.199754        0.000000   656824.087201   657473.286956
     
       CHARGES OF NEW CHARGE DENSITY
:NTO   : INTERSTITIAL CHARGE =     7.093566
:NPC   : PW Pseudocharge     =    17.132261
:NTO001: CHARGE SPHERE  1    =    55.451713

:NEC01: NUCLEAR AND ELECTRONIC CHARGE    118.00000   117.99699
     
       CHARGES OF OLD CHARGE DENSITY
:OTO   : INTERSTITIAL CHARGE =     6.874207
:OPC   : PW Pseudocharge     =    17.599469
:OTO001: CHARGE SPHERE  1    =    55.562897

:NEC02: NUCLEAR AND ELECTRONIC CHARGE    118.00000   118.00000
     
       CONVERGENCE TEST
:DTO001: DIFFERENCE IN SPHERE  1 =  0.1901811

:DIS  :  CHARGE DISTANCE       ( 0.1901811 for atom    1 spin 1)      0.1901811
 PW Mixed is          446
 
******************************************************
* MULTISECANT MIXING VER9 RELEASE 10.4.0              *
* Standard Mode with controls                        *
* Fixed density scale                                *
* Regularization       1.000E-04                     *
* Trust Upper Limit    5.000E+00                     *
* Max Number of Memory Steps    8                    *
******************************************************
 
:PWTMP   3.1917E+02  1.9467E+02  4.2110E+02
:PLANE:  PW TOTAL      5.2305 DISTAN   3.15E-01  6.01E+00 %
:CHARG:  CLM/ATOM   1382.0359 DISTAN   5.56E-01  4.02E-02 %
 
Step History
        DMIX         DMIXT        Red     Pred      Trust     Lambda    MagRel    MagAbs     Beta
  1   3.5000E-02   3.5000E-02 -1.00E+00  1.00E+00 -1.00E+01  1.00E+00  3.50E-02  3.50E-02  1.00E+00
  2   2.5000E-02   2.5000E-02  7.08E-01  1.00E+00 -1.00E+01  1.00E+00  2.50E-02  3.49E-02  1.00E+00
  3   3.9482E-02   3.9482E-02  8.01E-01  1.00E+00 -1.00E+01  1.28E-02  3.95E-02  3.90E-02  1.00E+00
  4   4.9967E-02   4.9967E-02 -1.00E+00  9.51E-01  2.89E-01  1.00E+00  8.22E-02  6.50E-02  9.40E-01
:JACOBIANS    7.338E-01   5.239E-02
  
:NORMS:  1/Froebius, Min, Max, Used   0.5092E+00  0.3684E+00  0.9956E+00  0.5457E+00
:INFO :  Number of Memory Steps    3 Skipping    0
:INFO :  SLambda=    1.2821486579  Max    1.2821486579
:PREDicted Charge, CTotal, PW Trust    1.874E-02   3.749E-02   3.572E-01
:PREDicted DMix, Beta, BLim   2.7513E-01  3.6686E+00  4.7940E-01

Eigenvalues, unscaled except for SY+YY
   #     SY Real        SY Imag          SS             YY         SY+YY Real      SY+YY Imag
   1   8.293532E-01   0.000000E+00   7.556161E-01   2.537799E+00   3.320071E+00   0.000000E+00
   2   4.506990E-16   0.000000E+00   2.216874E-02   4.621567E-01   4.584163E-05   0.000000E+00
   3   1.098145E-01   0.000000E+00  -2.440993E-17   4.417575E-05   8.840359E-01   0.000000E+00
 
:INFO :  Singular value  3.320E+00 Weight  1.000E+00 Projection  2.857E-02
:INFO :  Singular value  8.839E-01 Weight  1.000E+00 Projection -6.220E-01
:INFO :  Singular value  4.584E-05 Weight  3.160E-02 Projection  6.815E-01
:RANK :  ACTIVE   2.03/3  =  67.72 % ; YY RANK   2.03/3  =  67.65 %
 
:BLIM :  VZERO Control Off
:TRUST:  Step 3.94E-01  Charge 7.50E-02 (e) CTO  2.50E-01 (e) PW  3.85E-01 (e)
:DTRUS:  Lambda    1.648E-01 Increment    7.276E-12 Iterations   101 DMIX    1.145E-01
:INFOA:  Angle SubSpace to MSR1      4.59
:DIRM :  MEMORY  3/8  SCALE   1.000 RED  0.81 PRED  0.95 NEXT  0.78 
:INFO :  Limited by Atoms F by Step T

:TRAVE:  Charge 8.40E-03 (e) CTO  1.68E-02 (e) PW  1.22E-01 (e)
:DIRP :  |MSR1|= 2.339E-01 |PRATT|= 3.145E-01 ANGLE=  13.8 DEGREES
:DIRQ :  |MSR1|= 9.357E-02 |PRATT|= 5.560E-01 ANGLE=  16.2 DEGREES
:DIRT :  |MSR1|= 2.519E-01 |PRATT|= 6.388E-01 ANGLE=  41.0 DEGREES
:MIX  :   MSE1   REGULARIZATION:  2.54E-04 GREED: 0.12492  LMStep 0.72  0.3944 Step           
     
       CHARGES OF MIXED CHARGE DENSITY
:CTO   : INTERSTITIAL CHARGE =     6.891198
:CPC   : PW Pseudocharge     =    17.145534
:CTO001: CHARGE SPHERE  1    =    55.554401

:NEC03: NUCLEAR AND ELECTRONIC CHARGE    118.00000   118.00000

PW CHANGE     H    K    L      Current       Change    Residue
:PTO001:      0    0    0  5.70813579E-02 -1.038E-03 -5.642E-04
:PTO003:      0    2    0  1.52577013E-02 -4.004E-04  8.046E-06
:PTO004:     -1    1    0  7.42917404E-02 -2.643E-03 -2.587E-03
:PTO005:      0    2   -1 -8.63118420E-02  3.313E-03  4.226E-03
:PTO006:      0    0   -2 -4.47575479E-02  1.742E-03  2.303E-03
:PTO007:     -1    1   -1 -9.30962648E-02  4.092E-03  5.927E-03
:PTO008:      0    2   -2 -1.50539657E-02  8.238E-04  1.135E-03
:PTO009:     -1    1   -2 -7.54317762E-02  4.249E-03  5.299E-03
:PTO011:     -1    3    0 -1.19662557E-02  8.436E-04  1.128E-03
:PTO012:     -1    3   -1 -5.36745751E-02  3.984E-03  4.691E-03
:PTO013:      0    4    0 -9.84793180E-03  8.682E-04  1.259E-03
:PTO014:      0    2   -3  2.23284229E-02 -1.878E-03 -2.288E-03

:ENE  : ********** TOTAL ENERGY IN Ry =       -36944.21147923

       TOTAL FORCE IN mRy/a.u. = |F|     Fx             Fy             Fz     with/without FOR in case.in2
:FOR001:   1.ATOM         52.355          0.000          0.000        -52.355 partial forces
       TOTAL FORCE WITH RESPECT TO GLOBAL CARTESIAN COORDINATES:
:FCA001:   1.ATOM                         0.000        -52.355          0.000 partial forces
       TOTAL FORCE WITH RESPECT TO THE GLOBAL COORDINATE SYSTEM:
:FGL001:   1.ATOM                 0.000000000   -52.355068231     0.000000000 partial forces
 Flat Integration
 New Mode for Coulomb Integral
 Consistent 3/8+Simpson combinations
 Extension of core to zero
 LDM version in phi
 Fifth-order quadrature in outwin


            ---------
:ITE005:  5. ITERATION
            ---------

:NATO :    1 INDEPENDENT AND    2 TOTAL ATOMS IN UNITCELL
       SUBSTANCE: aU                                                          

       LATTICE                      = CXY 
:POT  : POTENTIAL OPTION EX_LDA EC_LDA VX_LDA VC_LDA
:LAT  : LATTICE CONSTANTS=  6.18760 12.55620 10.84003    1.571    1.571    1.571
:VOL  : UNIT CELL VOLUME =     421.09601
       MODE OF CALCULATION IS       = RELA
       NON-SPINPOLARIZED CALCULATION
:IFFT  : FFT-parameters:   48   96   90 Factor: 2.00


   CONVERGENCE PARAMETER FOR PSEUDOCHARGE: NCON=  9
   MAXIMAL VALUE OF RMT(JATOM)*ABSK(NKK) : RK  =27.59478


:VKCOUL :  VK-COUL convergence: 0.790E-07
       ATOMNUMBER=  1 Pr1        VCOUL-ZERO =  0.18746E+00
:EFG001:                        EFG         =    -1.80631   *10**21  V / m**2
                               V20  TOT/SRF=    -1.56431    -0.03500
                               V22  TOT/SRF=    -0.17416     0.00114
                               V22M TOT/SRF=     0.00000     0.00000
                               V21  TOT/SRF=     0.00000     0.00000
                               V21M TOT/SRF=     0.00000     0.00000

              0.72899    0.00000    0.00000        0.72899    0.00000    0.00000
              0.00000    1.07732    0.00000        0.00000    1.07732    0.00000
              0.00000    0.00000   -1.80631        0.00000    0.00000   -1.80631

         MAIN DIRECTIONS OF THE EFG   1.0000  0.0000  0.0000
                                      0.0000  1.0000  0.0000
                                      0.0000  0.0000  1.0000
:ANG001:  ANGLE WITH OLD X-AXIS =         0.0

:ETA001:                         ASYMM. ETA =     0.19284


     HELLMANN-FEYNMAN-FORCE IN mRy/a.u. = |F|  Fx       Fy             Fz
:FHF001:   1.ATOM    523.855079367665      0.000000000000      0.000000000000   -523.855079367665

:FIT001: LUSE= 13 SIGMA OF V-XC FIT FOR ATOM  1  0.8750820E-05
:FIT001: LUSE= 13 SIGMA OF V-XC FIT FOR ATOM  1  0.8750820E-05
:DEN  : DENSITY INTEGRAL  =        -14160.28834954   (Ry)
       ELS_POTENTIAL_AT Z=0 and Z=0.5:   0.78061   0.78061
       ELS_POTENTIAL_AT Y=0 and Y=0.5:   0.05515   0.05515
:VZERO:v0,v0c,v0x   0.16902   0.78061  -0.61158 v5,v5c,v5x   0.16902   0.78061  -0.61158
:VZERY:v0,v0c,v0x  -0.75988   0.05515  -0.81503 v5,v5c,v5x  -0.75988   0.05515  -0.81503
:VZERX:v0,v0c,v0x  -1.16023  -0.38406  -0.77617 v5,v5c,v5x  -1.16023  -0.38406  -0.77617
:LMAX-WF:   10   Non-Spherical LMAX:   4

          ATOMIC SPHERE DEPENDENT PARAMETERS FOR ATOM  Pr1       
:e__0001: OVERALL ENERGY PARAMETER IS    0.5440
          OVERALL BASIS SET ON ATOM IS LAPW
:E0_0001: E( 0)=    0.5440
             APW+lo
:E0_0001: E( 0)=   -1.9231   E(BOTTOM)=   -2.558   E(TOP)=   -1.288  4  5   186
             LOCAL ORBITAL
:E1_0001: E( 1)=    0.9440
             APW+lo
:E1_0001: E( 1)=   -0.4528   E(BOTTOM)=   -1.410   E(TOP)=    0.504  3  4   200
             LOCAL ORBITAL
:E3_0001: E( 3)=    0.7211   E(BOTTOM)=    0.515   E(TOP)=    0.927  0  1   121
             APW+lo
:E2_0001: E( 2)=    0.5440   E(BOTTOM)=    0.330   E(TOP)= -200.000  2 -1    85
             APW+lo

       K=   0.06250   0.00000   0.06250            1
:RKM  : MATRIX SIZE   407LOs:  40  RKM= 8.48  WEIGHT= 4.00  PGR:    
       EIGENVALUES ARE:
:EIG00001:      -1.9034849   -1.8810455   -0.6476392   -0.5421047   -0.5182105
:EIG00006:      -0.5090104   -0.4991902   -0.4990191    0.5048393    0.6250755
:EIG00011:       0.7203279    0.7233668    0.7237385    0.7270095    0.7322759
:EIG00016:       0.7465899    0.7520282    0.7521238    0.7554372    0.7586674
:EIG00021:       0.7645606    0.7665250    0.7674724    0.7751674    0.8056872
:EIG00026:       0.8224619    0.9112005    0.9213122    0.9685526    0.9927530
:EIG00031:       1.0064800    1.1165900    1.1583782    1.2127783    1.5159958
:EIG00036:       1.5472327    1.6016376    1.6251393    1.7844425    1.8405131
:EIG00041:       1.9388916    2.0359316    2.1341895    2.1494656
       ********************************************************

:KPT   :      NUMBER OF K-POINTS:   288
:GAP (global)   :    0.0    Ry =     0.0   eV (metal)
         Bandranges (emin - emax) and occupancy:
:BAN00004:   4   -0.627225   -0.542105  2.00000000
:BAN00005:   5   -0.611739   -0.518210  2.00000000
:BAN00006:   6   -0.592251   -0.503617  2.00000000
:BAN00007:   7   -0.567352   -0.499190  2.00000000
:BAN00008:   8   -0.525069   -0.494080  2.00000000
:BAN00009:   9    0.498957    0.692142  2.00000000
:BAN00010:  10    0.606363    0.708199  2.00000000
:BAN00011:  11    0.648824    0.727530  2.00000000
:BAN00012:  12    0.696713    0.731579  1.99781274
:BAN00013:  13    0.710557    0.741797  1.48489194
:BAN00014:  14    0.721964    0.748042  0.51729532
:BAN00015:  15    0.731774    0.751687  0.00000000
:BAN00016:  16    0.737948    0.752840  0.00000000
:BAN00017:  17    0.742703    0.754876  0.00000000
:BAN00018:  18    0.746075    0.756516  0.00000000
:BAN00019:  19    0.750470    0.759421  0.00000000
        Energy to separate low and high energystates:    0.44896


:NOE  : NUMBER OF ELECTRONS          =   26.000

:FER  : F E R M I - ENERGY(TETRAH.M.)=   0.7308745511
:GMA  : POTENTIAL AND CHARGE CUT-OFF  12.00 Ry**.5

:POS001: ATOM   -1 X,Y,Z = 0.00000 0.89750 0.25000  MULT= 2  ZZ= 59.000  Pr1       

       LMMAX 16
       LM=   0 0  1 0  2 0  2 2  3 0  3 2  4 0  4 2  4 4  5 0  5 2  5 4  6 0  6 2  6 4  6 6

:CHA001: TOTAL VALENCE CHARGE INSIDE SPHERE   1 =   9.5502    (RMT=  2.3000 )
:PCS001: PARTIAL CHARGES SPHERE =  1 S,P,D,F,PX,PY,PZ,D-Z2,D-X2Y2,D-XY,D-XZ,D-YZ 
:QTL001: 1.9421 5.0064 0.5882 2.0130 1.6657 1.6654 1.6753 0.1110 0.1073 0.1243 0.1175 0.1281
        Q-s-low E-s-low   Q-p-low E-p-low   Q-d-low E-d-low   Q-f-low E-f-low
:EPL001:  1.8690 -1.8808    4.9357 -0.5606    0.0033 -0.5922    0.0009 -0.6029
        Q-s-hi  E-s-hi    Q-p-hi  E-p-hi    Q-d-hi  E-d-hi    Q-f-hi  E-f-hi 
:EPH001:  0.0732  0.6342    0.0707  0.6708    0.5849  0.6739    2.0121  0.7132

                      VXX         VYY         VZZ       UP TO R
:VZZ001:             3.53531     4.49838    -8.03370       2.300

:CHA  : TOTAL VALENCE CHARGE INSIDE UNIT CELL =      26.000000

:SUM  : SUM OF EIGENVALUES =          -7.416852457


        1.ATOM      Pr1                  14 CORE STATES
       CORE-FORCE in mRy/a.u. = |F|      Fx             Fy             Fz
:FCO001:   1.ATOM    504.673251234151      0.000000000000      0.000000000000    504.673251234151

:1S 001: 1S               -3066.869640163 Ry
:2S 001: 2S                -492.631895471 Ry
:2PP001: 2P*               -465.729895306 Ry
:2P 001: 2P                -430.332918687 Ry
:3S 001: 3S                -105.726268016 Ry
:3PP001: 3P*                -94.263933575 Ry
:3P 001: 3P                 -87.256155236 Ry
:3DD001: 3D*                -67.183128489 Ry
:3D 001: 3D                 -65.671603269 Ry
:4S 001: 4S                 -20.394510879 Ry
:4PP001: 4P*                -16.100530731 Ry
:4P 001: 4P                 -14.571985642 Ry
:4DD001: 4D*                 -7.503048184 Ry
:4D 001: 4D                  -7.233272934 Ry
:CINT001 Core Integral Atom   1   45.998506

       DENSITY AT NUCLEUS
        JATOM        VALENCE       SEMI-CORE          CORE           TOTAL
:RTO001:   1      649.291703        0.000000   656824.936386   657474.228089
     
       CHARGES OF NEW CHARGE DENSITY
:NTO   : INTERSTITIAL CHARGE =     6.899592
:NPC   : PW Pseudocharge     =    17.071504
:NTO001: CHARGE SPHERE  1    =    55.548709

:NEC01: NUCLEAR AND ELECTRONIC CHARGE    118.00000   117.99701
     
       CHARGES OF OLD CHARGE DENSITY
:OTO   : INTERSTITIAL CHARGE =     6.891198
:OPC   : PW Pseudocharge     =    17.145534
:OTO001: CHARGE SPHERE  1    =    55.554401

:NEC02: NUCLEAR AND ELECTRONIC CHARGE    118.00000   118.00000
     
       CONVERGENCE TEST
:DTO001: DIFFERENCE IN SPHERE  1 =  0.0776773

:DIS  :  CHARGE DISTANCE       ( 0.0776773 for atom    1 spin 1)      0.0776773
 PW Mixed is          446
 
******************************************************
* MULTISECANT MIXING VER9 RELEASE 10.4.0              *
* Standard Mode with controls                        *
* Fixed density scale                                *
* Regularization       1.000E-04                     *
* Trust Upper Limit    5.000E+00                     *
* Max Number of Memory Steps    8                    *
******************************************************
 
:PWTMP   3.1917E+02  1.9467E+02  4.2110E+02
:PLANE:  PW TOTAL      5.0368 DISTAN   9.59E-02  1.90E+00 %
:CHARG:  CLM/ATOM   1382.0199 DISTAN   4.11E-01  2.97E-02 %
 
Step History
        DMIX         DMIXT        Red     Pred      Trust     Lambda    MagRel    MagAbs     Beta
  1   3.5000E-02   3.5000E-02 -1.00E+00  1.00E+00 -1.00E+01  1.00E+00  3.50E-02  3.50E-02  1.00E+00
  2   2.5000E-02   2.5000E-02  7.08E-01  1.00E+00 -1.00E+01  1.00E+00  2.50E-02  3.49E-02  1.00E+00
  3   3.9482E-02   3.9482E-02  8.01E-01  1.00E+00 -1.00E+01  1.28E-02  3.95E-02  3.90E-02  1.00E+00
  4   4.9967E-02   4.9967E-02  8.08E-01  9.51E-01  2.89E-01  1.28E+00  8.22E-02  6.50E-02  9.40E-01
  5   1.2492E-01   1.1449E-01 -1.00E+00  7.81E-01  3.94E-01  1.00E+00  3.94E-01  2.52E-01  1.00E+00
:JACOBIANS    8.718E-01   2.614E-01
  
:NORMS:  1/Froebius, Min, Max, Used   0.5078E+00  0.3967E+00  0.9993E+00  0.5468E+00
:INFO :  Number of Memory Steps    4 Skipping    0
:INFO :  SLambda=    0.8263998508  Max    0.8263998508
:PREDicted Charge, CTotal, PW Trust    9.546E-03   1.909E-02   2.483E-01
:PREDicted DMix, Beta, BLim   3.8320E-01  1.5145E+00  7.4934E-01

Eigenvalues, unscaled except for SY+YY
   #     SY Real        SY Imag          SS             YY         SY+YY Real      SY+YY Imag
   1   9.338790E-01   0.000000E+00   9.246719E-01   3.092698E+00   3.417870E+00   0.000000E+00
   2   2.680629E-01   0.000000E+00   1.063207E-01   9.012773E-01   1.569117E+00   0.000000E+00
   3   6.499922E-16   0.000000E+00   3.310502E-04   5.994439E-03   3.202005E-05   0.000000E+00
   4   2.183126E-03   0.000000E+00   3.804543E-17   2.998672E-05   8.070061E-03   0.000000E+00
 
:INFO :  Singular value  3.419E+00 Weight  1.000E+00 Projection -7.347E-02
:INFO :  Singular value  1.569E+00 Weight  1.000E+00 Projection -1.252E-01
:INFO :  Singular value  8.070E-03 Weight  9.985E-01 Projection -3.780E+00
:INFO :  Singular value  3.202E-05 Weight  1.061E-02 Projection  3.966E-01
:RANK :  ACTIVE   3.01/4  =  75.23 % ; YY RANK   3.01/4  =  75.17 %
 
:BLIM :  VZERO Control Off
:TRUST:  Step 5.45E-01  Charge 7.50E-02 (e) CTO  2.50E-01 (e) PW  3.85E-01 (e)
:DTRUS:  Lambda    8.085E-02 Increment    7.276E-12 Iterations    94 DMIX    2.330E-01
:INFOA:  Angle SubSpace to MSR1      1.27
:DIRM :  MEMORY  4/8  SCALE   1.000 RED  0.66 PRED  0.78 NEXT  0.78 
:INFO :  Limited by Atoms F by Step T

:TRAVE:  Charge 4.86E-03 (e) CTO  9.73E-03 (e) PW  8.13E-02 (e)
:DIRP :  |MSR1|= 7.286E-02 |PRATT|= 9.587E-02 ANGLE=  14.8 DEGREES
:DIRQ :  |MSR1|= 2.182E-01 |PRATT|= 4.107E-01 ANGLE=   8.2 DEGREES
:DIRT :  |MSR1|= 2.300E-01 |PRATT|= 4.217E-01 ANGLE=  10.3 DEGREES
:MIX  :   MSD1   REGULARIZATION:  3.09E-04 GREED: 0.23342  LMStep 0.97  0.5454 Step           
     
       CHARGES OF MIXED CHARGE DENSITY
:CTO   : INTERSTITIAL CHARGE =     6.893850
:CPC   : PW Pseudocharge     =    17.054490
:CTO001: CHARGE SPHERE  1    =    55.553075

:NEC03: NUCLEAR AND ELECTRONIC CHARGE    118.00000   118.00000

PW CHANGE     H    K    L      Current       Change    Residue
:PTO001:      0    0    0  5.68714492E-02 -2.099E-04 -1.312E-04
:PTO003:      0    2    0  1.52197769E-02 -3.792E-05  1.609E-04
:PTO004:     -1    1    0  7.38375156E-02 -4.542E-04 -1.594E-04
:PTO005:      0    2   -1 -8.54699810E-02  8.419E-04  8.672E-04
:PTO006:      0    0   -2 -4.43252287E-02  4.323E-04  4.765E-04
:PTO007:     -1    1   -1 -9.18940723E-02  1.202E-03  1.522E-03
:PTO008:      0    2   -2 -1.47316657E-02  3.223E-04  3.967E-04
:PTO009:     -1    1   -2 -7.45364761E-02  8.953E-04  8.330E-04
:PTO011:     -1    3    0 -1.17967402E-02  1.695E-04  1.937E-04
:PTO012:     -1    3   -1 -5.27601944E-02  9.144E-04  7.905E-04
:PTO013:      0    4    0 -9.55427451E-03  2.937E-04  3.690E-04
:PTO014:      0    2   -3  2.19139959E-02 -4.144E-04 -3.811E-04

:ENE  : ********** TOTAL ENERGY IN Ry =       -36944.20830290

       TOTAL FORCE IN mRy/a.u. = |F|     Fx             Fy             Fz     with/without FOR in case.in2
:FOR001:   1.ATOM         19.182          0.000          0.000        -19.182 partial forces
       TOTAL FORCE WITH RESPECT TO GLOBAL CARTESIAN COORDINATES:
:FCA001:   1.ATOM                         0.000        -19.182          0.000 partial forces
       TOTAL FORCE WITH RESPECT TO THE GLOBAL COORDINATE SYSTEM:
:FGL001:   1.ATOM                 0.000000000   -19.181828134     0.000000000 partial forces
 Flat Integration
 New Mode for Coulomb Integral
 Consistent 3/8+Simpson combinations
 Extension of core to zero
 LDM version in phi
 Fifth-order quadrature in outwin


            ---------
:ITE006:  6. ITERATION
            ---------

:NATO :    1 INDEPENDENT AND    2 TOTAL ATOMS IN UNITCELL
       SUBSTANCE: aU                                                          

       LATTICE                      = CXY 
:POT  : POTENTIAL OPTION EX_LDA EC_LDA VX_LDA VC_LDA
:LAT  : LATTICE CONSTANTS=  6.18760 12.55620 10.84003    1.571    1.571    1.571
:VOL  : UNIT CELL VOLUME =     421.09601
       MODE OF CALCULATION IS       = RELA
       NON-SPINPOLARIZED CALCULATION
:IFFT  : FFT-parameters:   48   96   90 Factor: 2.00


   CONVERGENCE PARAMETER FOR PSEUDOCHARGE: NCON=  9
   MAXIMAL VALUE OF RMT(JATOM)*ABSK(NKK) : RK  =27.59478


:VKCOUL :  VK-COUL convergence: 0.808E-07
       ATOMNUMBER=  1 Pr1        VCOUL-ZERO =  0.18750E+00
:EFG001:                        EFG         =    -5.96777   *10**21  V / m**2
                               V20  TOT/SRF=    -5.16824    -0.03614
                               V22  TOT/SRF=    -0.04057    -0.00135
                               V22M TOT/SRF=     0.00000     0.00000
                               V21  TOT/SRF=     0.00000     0.00000
                               V21M TOT/SRF=     0.00000     0.00000

              2.94332    0.00000    0.00000        2.94332    0.00000    0.00000
              0.00000    3.02446    0.00000        0.00000    3.02446    0.00000
              0.00000    0.00000   -5.96777        0.00000    0.00000   -5.96777

         MAIN DIRECTIONS OF THE EFG   1.0000  0.0000  0.0000
                                      0.0000  1.0000  0.0000
                                      0.0000  0.0000  1.0000
:ANG001:  ANGLE WITH OLD X-AXIS =         0.0

:ETA001:                         ASYMM. ETA =     0.01360


     HELLMANN-FEYNMAN-FORCE IN mRy/a.u. = |F|  Fx       Fy             Fz
:FHF001:   1.ATOM   1040.907682818780      0.000000000000      0.000000000000  -1040.907682818780

:FIT001: LUSE= 13 SIGMA OF V-XC FIT FOR ATOM  1  0.3115299E-04
:FIT001: LUSE= 13 SIGMA OF V-XC FIT FOR ATOM  1  0.3115299E-04
:DEN  : DENSITY INTEGRAL  =        -14160.37098794   (Ry)
       ELS_POTENTIAL_AT Z=0 and Z=0.5:   0.78137   0.78137
       ELS_POTENTIAL_AT Y=0 and Y=0.5:   0.05913   0.05913
:VZERO:v0,v0c,v0x   0.16995   0.78137  -0.61143 v5,v5c,v5x   0.16995   0.78137  -0.61143
:VZERY:v0,v0c,v0x  -0.75653   0.05913  -0.81566 v5,v5c,v5x  -0.75653   0.05913  -0.81566
:VZERX:v0,v0c,v0x  -1.15955  -0.38364  -0.77591 v5,v5c,v5x  -1.15955  -0.38364  -0.77591
:LMAX-WF:   10   Non-Spherical LMAX:   4

          ATOMIC SPHERE DEPENDENT PARAMETERS FOR ATOM  Pr1       
:e__0001: OVERALL ENERGY PARAMETER IS    0.5352
          OVERALL BASIS SET ON ATOM IS LAPW
:E0_0001: E( 0)=    0.5352
             APW+lo
:E0_0001: E( 0)=   -1.9259   E(BOTTOM)=   -2.561   E(TOP)=   -1.291  4  5   192
             LOCAL ORBITAL
:E1_0001: E( 1)=    0.9352
             APW+lo
:E1_0001: E( 1)=   -0.4554   E(BOTTOM)=   -1.412   E(TOP)=    0.502  3  4   197
             LOCAL ORBITAL
:E3_0001: E( 3)=    0.7193   E(BOTTOM)=    0.514   E(TOP)=    0.925  0  1   123
             APW+lo
:E2_0001: E( 2)=    0.5352   E(BOTTOM)=    0.328   E(TOP)= -200.000  2 -1    86
             APW+lo

       K=   0.06250   0.00000   0.06250            1
:RKM  : MATRIX SIZE   407LOs:  40  RKM= 8.48  WEIGHT= 4.00  PGR:    
       EIGENVALUES ARE:
:EIG00001:      -1.9060298   -1.8837459   -0.6493578   -0.5440230   -0.5201154
:EIG00006:      -0.5112712   -0.5018951   -0.5013748    0.5047346    0.6246655
:EIG00011:       0.7204063    0.7221398    0.7224111    0.7255659    0.7314560
:EIG00016:       0.7444704    0.7496784    0.7497695    0.7529179    0.7566213
:EIG00021:       0.7617072    0.7659545    0.7661786    0.7735523    0.8044259
:EIG00026:       0.8221174    0.9106146    0.9207211    0.9678111    0.9919746
:EIG00031:       1.0056541    1.1154849    1.1569075    1.2118030    1.5157197
:EIG00036:       1.5465249    1.6012209    1.6247007    1.7836477    1.8410093
:EIG00041:       1.9395199    2.0360126    2.1331661    2.1498765
       ********************************************************

:KPT   :      NUMBER OF K-POINTS:   288
:GAP (global)   :    0.0    Ry =     0.0   eV (metal)
         Bandranges (emin - emax) and occupancy:
:BAN00004:   4   -0.629222   -0.544023  2.00000000
:BAN00005:   5   -0.613590   -0.520115  2.00000000
:BAN00006:   6   -0.594141   -0.505888  2.00000000
:BAN00007:   7   -0.569244   -0.501895  2.00000000
:BAN00008:   8   -0.527301   -0.496449  2.00000000
:BAN00009:   9    0.498840    0.690895  2.00000000
:BAN00010:  10    0.606208    0.707074  2.00000000
:BAN00011:  11    0.648151    0.726617  2.00000000
:BAN00012:  12    0.696355    0.730196  1.99551484
:BAN00013:  13    0.709598    0.740241  1.45445808
:BAN00014:  14    0.720111    0.746687  0.55002707
:BAN00015:  15    0.731116    0.749283  0.00000000
:BAN00016:  16    0.735688    0.750995  0.00000000
:BAN00017:  17    0.740961    0.753769  0.00000000
:BAN00018:  18    0.744683    0.754851  0.00000000
:BAN00019:  19    0.749122    0.757992  0.00000000
        Energy to separate low and high energystates:    0.44884


:NOE  : NUMBER OF ELECTRONS          =   26.000

:FER  : F E R M I - ENERGY(TETRAH.M.)=   0.7292424449
:GMA  : POTENTIAL AND CHARGE CUT-OFF  12.00 Ry**.5

:POS001: ATOM   -1 X,Y,Z = 0.00000 0.89750 0.25000  MULT= 2  ZZ= 59.000  Pr1       

       LMMAX 16
       LM=   0 0  1 0  2 0  2 2  3 0  3 2  4 0  4 2  4 4  5 0  5 2  5 4  6 0  6 2  6 4  6 6

:CHA001: TOTAL VALENCE CHARGE INSIDE SPHERE   1 =   9.5637    (RMT=  2.3000 )
:PCS001: PARTIAL CHARGES SPHERE =  1 S,P,D,F,PX,PY,PZ,D-Z2,D-X2Y2,D-XY,D-XZ,D-YZ 
:QTL001: 1.9420 5.0081 0.5836 2.0296 1.6667 1.6658 1.6757 0.1100 0.1052 0.1247 0.1160 0.1277
        Q-s-low E-s-low   Q-p-low E-p-low   Q-d-low E-d-low   Q-f-low E-f-low
:EPL001:  1.8692 -1.8834    4.9380 -0.5627    0.0032 -0.5929    0.0009 -0.6030
        Q-s-hi  E-s-hi    Q-p-hi  E-p-hi    Q-d-hi  E-d-hi    Q-f-hi  E-f-hi 
:EPH001:  0.0728  0.6336    0.0701  0.6700    0.5803  0.6730    2.0286  0.7121

                      VXX         VYY         VZZ       UP TO R
:VZZ001:             1.93199     5.19159    -7.12358       2.300

:CHA  : TOTAL VALENCE CHARGE INSIDE UNIT CELL =      26.000000

:SUM  : SUM OF EIGENVALUES =          -7.459880754


        1.ATOM      Pr1                  14 CORE STATES
       CORE-FORCE in mRy/a.u. = |F|      Fx             Fy             Fz
:FCO001:   1.ATOM   1044.362759455062      0.000000000000      0.000000000000   1044.362759455062

:1S 001: 1S               -3066.871307253 Ry
:2S 001: 2S                -492.628983700 Ry
:2PP001: 2P*               -465.727404773 Ry
:2P 001: 2P                -430.330218431 Ry
:3S 001: 3S                -105.723126388 Ry
:3PP001: 3P*                -94.260797553 Ry
:3P 001: 3P                 -87.253047722 Ry
:3DD001: 3D*                -67.179762326 Ry
:3D 001: 3D                 -65.668247582 Ry
:4S 001: 4S                 -20.394610914 Ry
:4PP001: 4P*                -16.100826364 Ry
:4P 001: 4P                 -14.572602276 Ry
:4DD001: 4D*                 -7.504033249 Ry
:4D 001: 4D                  -7.234348844 Ry
:CINT001 Core Integral Atom   1   45.998504

       DENSITY AT NUCLEUS
        JATOM        VALENCE       SEMI-CORE          CORE           TOTAL
:RTO001:   1      649.374078        0.000000   656825.013363   657474.387441
     
       CHARGES OF NEW CHARGE DENSITY
:NTO   : INTERSTITIAL CHARGE =     6.872646
:NPC   : PW Pseudocharge     =    17.066991
:NTO001: CHARGE SPHERE  1    =    55.562180

:NEC01: NUCLEAR AND ELECTRONIC CHARGE    118.00000   117.99701
     
       CHARGES OF OLD CHARGE DENSITY
:OTO   : INTERSTITIAL CHARGE =     6.893850
:OPC   : PW Pseudocharge     =    17.054490
:OTO001: CHARGE SPHERE  1    =    55.553075

:NEC02: NUCLEAR AND ELECTRONIC CHARGE    118.00000   118.00000
     
       CONVERGENCE TEST
:DTO001: DIFFERENCE IN SPHERE  1 =  0.0374393

:DIS  :  CHARGE DISTANCE       ( 0.0374393 for atom    1 spin 1)      0.0374393
 PW Mixed is          446
 
******************************************************
* MULTISECANT MIXING VER9 RELEASE 10.4.0              *
* Standard Mode with controls                        *
* Fixed density scale                                *
* Regularization       1.000E-04                     *
* Trust Upper Limit    5.000E+00                     *
* Max Number of Memory Steps    8                    *
******************************************************
 
:PWTMP   3.1917E+02  1.9467E+02  4.2110E+02
:PLANE:  PW TOTAL      4.9911 DISTAN   2.90E-02  5.80E-01 %
:CHARG:  CLM/ATOM   1381.9850 DISTAN   1.91E-01  1.38E-02 %
 
Step History
        DMIX         DMIXT        Red     Pred      Trust     Lambda    MagRel    MagAbs     Beta
  1   3.5000E-02   3.5000E-02 -1.00E+00  1.00E+00 -1.00E+01  1.00E+00  3.50E-02  3.50E-02  1.00E+00
  2   2.5000E-02   2.5000E-02  7.08E-01  1.00E+00 -1.00E+01  1.00E+00  2.50E-02  3.49E-02  1.00E+00
  3   3.9482E-02   3.9482E-02  8.01E-01  1.00E+00 -1.00E+01  1.28E-02  3.95E-02  3.90E-02  1.00E+00
  4   4.9967E-02   4.9967E-02  8.08E-01  9.51E-01  2.89E-01  1.28E+00  8.22E-02  6.50E-02  9.40E-01
  5   1.2492E-01   1.1449E-01  6.60E-01  7.81E-01  3.94E-01  8.26E-01  3.94E-01  2.52E-01  1.00E+00
  6   2.3342E-01   2.3304E-01 -1.00E+00  7.77E-01  5.45E-01  1.00E+00  5.45E-01  2.30E-01  1.00E+00
:JACOBIANS    9.464E-01   6.608E-01
  
:NORMS:  1/Froebius, Min, Max, Used   0.6744E+00  0.4158E+00  0.9995E+00  0.7307E+00
:INFO :  Number of Memory Steps    5 Skipping    0
:INFO :  SLambda=    0.8550622662  Max    0.8550622662
:PREDicted Charge, CTotal, PW Trust    1.372E-03   2.744E-03   3.048E-02
:PREDicted DMix, Beta, BLim   4.6339E-01  1.3673E+00  8.6858E-01

Eigenvalues, unscaled except for SY+YY
   #     SY Real        SY Imag          SS             YY         SY+YY Real      SY+YY Imag
   1   1.910884E+00   0.000000E+00   1.852866E+00   3.469904E+00   4.847273E+00   0.000000E+00
   2   4.441763E-01   0.000000E+00   4.099145E-01   1.202309E+00   1.723032E+00   0.000000E+00
   3   1.075574E-01   0.000000E+00   1.127042E-02   3.247866E-01   5.322801E-01   0.000000E+00
   4   8.117897E-16   0.000000E+00   7.852903E-05   2.980093E-03   2.098910E-05   0.000000E+00
   5   5.366748E-04   0.000000E+00   1.524863E-17   2.102481E-05   3.544166E-03   0.000000E+00
 
:INFO :  Singular value  4.852E+00 Weight  1.000E+00 Projection -6.714E-02
:INFO :  Singular value  1.722E+00 Weight  1.000E+00 Projection -5.546E-02
:INFO :  Singular value  5.322E-01 Weight  1.000E+00 Projection -1.384E-01
:INFO :  Singular value  3.544E-03 Weight  9.905E-01 Projection -1.760E+00
:INFO :  Singular value  2.099E-05 Weight  3.645E-03 Projection  3.208E-02
:RANK :  ACTIVE   3.99/5  =  79.88 % ; YY RANK   3.99/5  =  79.81 %
 
:BLIM :  VZERO Control Off
:TRUST:  Step 7.27E-01  Charge 7.50E-02 (e) CTO  2.50E-01 (e) PW  3.85E-01 (e)
:DTRUS:  Lambda    2.186E-02 Increment    1.819E-12 Iterations   101 DMIX    3.108E-01
:INFOA:  Angle SubSpace to MSR1      0.26
:DIRM :  MEMORY  5/8  SCALE   1.000 RED  0.46 PRED  0.78 NEXT  0.53 
:INFO :  Limited by Atoms F by Step T

:TRAVE:  Charge 3.21E-03 (e) CTO  6.42E-03 (e) PW  4.37E-02 (e)
:DIRP :  |MSR1|= 2.265E-02 |PRATT|= 2.897E-02 ANGLE=   7.8 DEGREES
:DIRQ :  |MSR1|= 1.385E-01 |PRATT|= 1.908E-01 ANGLE=  20.0 DEGREES
:DIRT :  |MSR1|= 1.403E-01 |PRATT|= 1.929E-01 ANGLE=  19.8 DEGREES
:MIX  :   MSD1   REGULARIZATION:  3.47E-04 GREED: 0.31096  LMStep 0.98  0.7273 Step           
     
       CHARGES OF MIXED CHARGE DENSITY
:CTO   : INTERSTITIAL CHARGE =     6.890744
:CPC   : PW Pseudocharge     =    17.070859
:CTO001: CHARGE SPHERE  1    =    55.554628

:NEC03: NUCLEAR AND ELECTRONIC CHARGE    118.00000   118.00000

PW CHANGE     H    K    L      Current       Change    Residue
:PTO001:      0    0    0  5.69029443E-02  3.150E-05  4.090E-06
:PTO003:      0    2    0  1.51741451E-02 -4.563E-05 -8.171E-05
:PTO004:     -1    1    0  7.39237137E-02  8.620E-05  1.046E-04
:PTO005:      0    2   -1 -8.55192168E-02 -4.924E-05 -1.454E-04
:PTO006:      0    0   -2 -4.43135850E-02  1.164E-05  4.150E-05
:PTO007:     -1    1   -1 -9.18504542E-02  4.362E-05  2.025E-07
:PTO008:      0    2   -2 -1.46193469E-02  1.123E-04  1.468E-04
:PTO009:     -1    1   -2 -7.46465018E-02 -1.100E-04 -1.126E-04
:PTO011:     -1    3    0 -1.18924945E-02 -9.575E-05 -1.630E-04
:PTO012:     -1    3   -1 -5.28162745E-02 -5.608E-05 -1.206E-04
:PTO013:      0    4    0 -9.51740649E-03  3.687E-05  1.916E-05
:PTO014:      0    2   -3  2.19298465E-02  1.585E-05 -2.703E-06

:ENE  : ********** TOTAL ENERGY IN Ry =       -36944.20756562

       TOTAL FORCE IN mRy/a.u. = |F|     Fx             Fy             Fz     with/without FOR in case.in2
:FOR001:   1.ATOM          3.455          0.000          0.000          3.455 partial forces
       TOTAL FORCE WITH RESPECT TO GLOBAL CARTESIAN COORDINATES:
:FCA001:   1.ATOM                         0.000          3.455          0.000 partial forces
       TOTAL FORCE WITH RESPECT TO THE GLOBAL COORDINATE SYSTEM:
:FGL001:   1.ATOM                 0.000000000     3.455076636     0.000000000 partial forces
 Flat Integration
 New Mode for Coulomb Integral
 Consistent 3/8+Simpson combinations
 Extension of core to zero
 LDM version in phi
 Fifth-order quadrature in outwin


            ---------
:ITE007:  7. ITERATION
            ---------

:NATO :    1 INDEPENDENT AND    2 TOTAL ATOMS IN UNITCELL
       SUBSTANCE: aU                                                          

       LATTICE                      = CXY 
:POT  : POTENTIAL OPTION EX_LDA EC_LDA VX_LDA VC_LDA
:LAT  : LATTICE CONSTANTS=  6.18760 12.55620 10.84003    1.571    1.571    1.571
:VOL  : UNIT CELL VOLUME =     421.09601
       MODE OF CALCULATION IS       = RELA
       NON-SPINPOLARIZED CALCULATION
:IFFT  : FFT-parameters:   48   96   90 Factor: 2.00


   CONVERGENCE PARAMETER FOR PSEUDOCHARGE: NCON=  9
   MAXIMAL VALUE OF RMT(JATOM)*ABSK(NKK) : RK  =27.59478


:VKCOUL :  VK-COUL convergence: 0.113E-06
       ATOMNUMBER=  1 Pr1        VCOUL-ZERO =  0.18770E+00
:EFG001:                        EFG         =    -8.22234   *10**21  V / m**2
                               V20  TOT/SRF=    -7.12076    -0.03541
                               V22  TOT/SRF=    -0.51125    -0.00325
                               V22M TOT/SRF=     0.00000     0.00000
                               V21  TOT/SRF=     0.00000     0.00000
                               V21M TOT/SRF=     0.00000     0.00000

              3.59992    0.00000    0.00000        3.59992    0.00000    0.00000
              0.00000    4.62242    0.00000        0.00000    4.62242    0.00000
              0.00000    0.00000   -8.22234        0.00000    0.00000   -8.22234

         MAIN DIRECTIONS OF THE EFG   1.0000  0.0000  0.0000
                                      0.0000  1.0000  0.0000
                                      0.0000  0.0000  1.0000
:ANG001:  ANGLE WITH OLD X-AXIS =         0.0

:ETA001:                         ASYMM. ETA =     0.12436


     HELLMANN-FEYNMAN-FORCE IN mRy/a.u. = |F|  Fx       Fy             Fz
:FHF001:   1.ATOM   1508.460173791819      0.000000000000      0.000000000000  -1508.460173791819

:FIT001: LUSE= 13 SIGMA OF V-XC FIT FOR ATOM  1  0.5239521E-04
:FIT001: LUSE= 13 SIGMA OF V-XC FIT FOR ATOM  1  0.5239521E-04
:DEN  : DENSITY INTEGRAL  =        -14160.63438230   (Ry)
       ELS_POTENTIAL_AT Z=0 and Z=0.5:   0.78216   0.78216
       ELS_POTENTIAL_AT Y=0 and Y=0.5:   0.05870   0.05870
:VZERO:v0,v0c,v0x   0.17097   0.78216  -0.61118 v5,v5c,v5x   0.17097   0.78216  -0.61118
:VZERY:v0,v0c,v0x  -0.75689   0.05870  -0.81559 v5,v5c,v5x  -0.75689   0.05870  -0.81559
:VZERX:v0,v0c,v0x  -1.15981  -0.38380  -0.77600 v5,v5c,v5x  -1.15981  -0.38380  -0.77600
:LMAX-WF:   10   Non-Spherical LMAX:   4

          ATOMIC SPHERE DEPENDENT PARAMETERS FOR ATOM  Pr1       
:e__0001: OVERALL ENERGY PARAMETER IS    0.5312
          OVERALL BASIS SET ON ATOM IS LAPW
:E0_0001: E( 0)=    0.5312
             APW+lo
:E0_0001: E( 0)=   -1.9263   E(BOTTOM)=   -2.561   E(TOP)=   -1.291  4  5   188
             LOCAL ORBITAL
:E1_0001: E( 1)=    0.9312
             APW+lo
:E1_0001: E( 1)=   -0.4558   E(BOTTOM)=   -1.413   E(TOP)=    0.501  3  4   197
             LOCAL ORBITAL
:E3_0001: E( 3)=    0.7201   E(BOTTOM)=    0.514   E(TOP)=    0.926  0  1   122
             APW+lo
:E2_0001: E( 2)=    0.5312   E(BOTTOM)=    0.328   E(TOP)= -200.000  2 -1    86
             APW+lo

       K=   0.06250   0.00000   0.06250            1
:RKM  : MATRIX SIZE   407LOs:  40  RKM= 8.48  WEIGHT= 4.00  PGR:    
       EIGENVALUES ARE:
:EIG00001:      -1.9064187   -1.8841658   -0.6489639   -0.5448169   -0.5210390
:EIG00006:      -0.5118016   -0.5019139   -0.5016516    0.5050761    0.6249982
:EIG00011:       0.7206544    0.7232336    0.7232537    0.7264616    0.7323646
:EIG00016:       0.7455970    0.7503277    0.7506995    0.7540648    0.7573607
:EIG00021:       0.7623424    0.7661667    0.7666813    0.7746776    0.8049195
:EIG00026:       0.8221775    0.9111850    0.9207116    0.9679451    0.9919535
:EIG00031:       1.0054332    1.1156572    1.1570461    1.2119053    1.5159033
:EIG00036:       1.5465338    1.6016585    1.6251227    1.7842283    1.8414233
:EIG00041:       1.9402008    2.0364588    2.1336416    2.1502759
       ********************************************************

:KPT   :      NUMBER OF K-POINTS:   288
:GAP (global)   :    0.0    Ry =     0.0   eV (metal)
         Bandranges (emin - emax) and occupancy:
:BAN00004:   4   -0.629647   -0.544817  2.00000000
:BAN00005:   5   -0.613315   -0.521039  2.00000000
:BAN00006:   6   -0.594475   -0.506429  2.00000000
:BAN00007:   7   -0.570004   -0.501914  2.00000000
:BAN00008:   8   -0.527502   -0.496992  2.00000000
:BAN00009:   9    0.499173    0.691428  2.00000000
:BAN00010:  10    0.606512    0.707603  2.00000000
:BAN00011:  11    0.648307    0.727797  2.00000000
:BAN00012:  12    0.696871    0.731523  1.99280182
:BAN00013:  13    0.709701    0.741468  1.42628461
:BAN00014:  14    0.720893    0.746964  0.58091357
:BAN00015:  15    0.731727    0.749563  0.00000000
:BAN00016:  16    0.736250    0.752505  0.00000000
:BAN00017:  17    0.742190    0.754067  0.00000000
:BAN00018:  18    0.745295    0.756431  0.00000000
:BAN00019:  19    0.749473    0.759036  0.00000000
        Energy to separate low and high energystates:    0.44917


:NOE  : NUMBER OF ELECTRONS          =   26.000

:FER  : F E R M I - ENERGY(TETRAH.M.)=   0.7299399535
:GMA  : POTENTIAL AND CHARGE CUT-OFF  12.00 Ry**.5

:POS001: ATOM   -1 X,Y,Z = 0.00000 0.89750 0.25000  MULT= 2  ZZ= 59.000  Pr1       

       LMMAX 16
       LM=   0 0  1 0  2 0  2 2  3 0  3 2  4 0  4 2  4 4  5 0  5 2  5 4  6 0  6 2  6 4  6 6

:CHA001: TOTAL VALENCE CHARGE INSIDE SPHERE   1 =   9.5566    (RMT=  2.3000 )
:PCS001: PARTIAL CHARGES SPHERE =  1 S,P,D,F,PX,PY,PZ,D-Z2,D-X2Y2,D-XY,D-XZ,D-YZ 
:QTL001: 1.9421 5.0092 0.5864 2.0185 1.6669 1.6661 1.6762 0.1108 0.1051 0.1253 0.1164 0.1287
        Q-s-low E-s-low   Q-p-low E-p-low   Q-d-low E-d-low   Q-f-low E-f-low
:EPL001:  1.8692 -1.8838    4.9385 -0.5630    0.0032 -0.5927    0.0009 -0.6024
        Q-s-hi  E-s-hi    Q-p-hi  E-p-hi    Q-d-hi  E-d-hi    Q-f-hi  E-f-hi 
:EPH001:  0.0729  0.6340    0.0706  0.6706    0.5832  0.6735    2.0176  0.7128

                      VXX         VYY         VZZ       UP TO R
[...]
:OTO001: CHARGE SPHERE  1    =    55.556969

:NEC02: NUCLEAR AND ELECTRONIC CHARGE    118.00000   118.00000
     
       CONVERGENCE TEST
:DTO001: DIFFERENCE IN SPHERE  1 =  0.0005644

:DIS  :  CHARGE DISTANCE       ( 0.0005644 for atom    1 spin 1)      0.0005644
 PW Mixed is          446
 
******************************************************
* MULTISECANT MIXING VER9 RELEASE 10.4.0              *
* Standard Mode with controls                        *
* Fixed density scale                                *
* Regularization       1.000E-04                     *
* Trust Upper Limit    5.000E+00                     *
* Max Number of Memory Steps    8                    *
******************************************************
 
:PWTMP   3.1917E+02  1.9467E+02  4.2110E+02
:PLANE:  PW TOTAL      4.9944 DISTAN   2.25E-04  4.51E-03 %
:CHARG:  CLM/ATOM   1381.9533 DISTAN   1.04E-03  7.55E-05 %
 
Step History
        DMIX         DMIXT        Red     Pred      Trust     Lambda    MagRel    MagAbs     Beta
  3   3.9482E-02   3.9482E-02  8.01E-01  1.00E+00 -1.00E+01  1.28E-02  3.95E-02  3.90E-02  1.00E+00
  4   4.9967E-02   4.9967E-02  8.08E-01  9.51E-01  2.89E-01  1.28E+00  8.22E-02  6.50E-02  9.40E-01
  5   1.2492E-01   1.1449E-01  6.60E-01  7.81E-01  3.94E-01  8.26E-01  3.94E-01  2.52E-01  1.00E+00
  6   2.3342E-01   2.3304E-01  4.57E-01  7.77E-01  5.45E-01  8.55E-01  5.45E-01  2.30E-01  1.00E+00
  7   3.1096E-01   3.1082E-01  2.73E-01  5.34E-01  7.27E-01  7.38E-01  7.27E-01  1.40E-01  1.00E+00
  8   2.9523E-01   2.9523E-01  3.86E-01  6.14E-01  9.70E-01  1.11E+00  6.62E-01  3.49E-02  1.00E+00
  9   3.2447E-01   3.2447E-01  4.05E-01  3.75E-01  1.29E+00  1.64E+00  4.45E-01  9.05E-03  1.00E+00
 10   2.7117E-01   2.7117E-01  3.58E-01  3.36E-01  1.72E+00  1.75E+00  1.86E-01  1.53E-03  9.84E-01
 11   2.8284E-01   2.8284E-01 -1.00E+00  5.06E-01  2.30E+00  1.00E+00  2.98E-01  8.77E-04  1.00E+00
:JACOBIANS    1.086E+00   2.555E+00
  
:NORMS:  1/Froebius, Min, Max, Used   0.7294E+00  0.5263E+00  0.9952E+00  0.9578E+00
:INFO :  Number of Memory Steps    8 Skipping    2
:INFO :  SLambda=    1.7008819227  Max    1.7008819227
:PREDicted Charge, CTotal, PW Trust    2.569E-04   5.138E-04   5.484E-05
:PREDicted DMix, Beta, BLim   7.1382E-01  1.5065E+00  2.2868E+00

Eigenvalues, unscaled except for SY+YY
   #     SY Real        SY Imag          SS             YY         SY+YY Real      SY+YY Imag
   1   3.296077E+00   0.000000E+00   3.323053E+00   3.622244E+00   9.196522E+00   0.000000E+00
   2   1.120915E+00   0.000000E+00   6.628660E-01   2.718378E+00   4.485315E+00   0.000000E+00
   3   3.306867E-01   0.000000E+00   2.092569E-01   9.078744E-01   1.626347E+00   0.000000E+00
   4   9.433084E-02   0.000000E+00   3.935791E-02   5.402829E-01   7.064856E-01   0.000000E+00
   5   6.649738E-02   0.000000E+00   1.649704E-02   1.473504E-01   2.513915E-01   0.000000E+00
   6   1.481185E-02   0.000000E+00   3.011345E-03   4.715635E-02   8.977423E-02   0.000000E+00
   7   7.801876E-04   0.000000E+00   2.126770E-03   1.416312E-02   4.994307E-03   0.000000E+00
   8   6.048768E-03   0.000000E+00   1.280853E-04   2.550685E-03   2.476944E-02   0.000000E+00
 
:INFO :  Singular value  9.201E+00 Weight  1.000E+00 Projection  4.026E-06
:INFO :  Singular value  4.494E+00 Weight  1.000E+00 Projection  2.530E-04
:INFO :  Singular value  1.623E+00 Weight  1.000E+00 Projection  3.773E-04
:INFO :  Singular value  7.064E-01 Weight  1.000E+00 Projection  2.877E-04
:INFO :  Singular value  2.514E-01 Weight  1.000E+00 Projection  1.186E-03
:INFO :  Singular value  8.976E-02 Weight  1.000E+00 Projection -1.953E-03
:INFO :  Singular value  2.480E-02 Weight  9.998E-01 Projection -5.142E-03
:INFO :  Singular value  4.987E-03 Weight  9.948E-01 Projection -8.483E-03
:RANK :  ACTIVE   7.99/8  =  99.93 % ; YY RANK   7.98/8  =  99.74 %
 
:BLIM :  VZERO Control Off
:TRUST:  Step 3.06E+00  Charge 3.07E-02 (e) CTO  1.02E-01 (e) PW  1.58E-01 (e)
:DIRM :  MEMORY  8/8  SCALE   1.000 RED  0.36 PRED  0.51 NEXT  0.20 
:TRAVE:  Charge 2.72E-04 (e) CTO  5.45E-04 (e) PW  1.51E-03 (e)
:DIRP :  |MSR1|= 1.825E-04 |PRATT|= 2.253E-04 ANGLE=  16.5 DEGREES
:DIRQ :  |MSR1|= 7.486E-04 |PRATT|= 1.043E-03 ANGLE=  19.3 DEGREES
:DIRT :  |MSR1|= 7.705E-04 |PRATT|= 1.067E-03 ANGLE=  19.2 DEGREES
:MIX  :   MSE1   REGULARIZATION:  3.62E-04 GREED: 0.35000  Newton 1.00  0.7222                
     
       CHARGES OF MIXED CHARGE DENSITY
:CTO   : INTERSTITIAL CHARGE =     6.885833
:CPC   : PW Pseudocharge     =    17.080058
:CTO001: CHARGE SPHERE  1    =    55.557083

:NEC03: NUCLEAR AND ELECTRONIC CHARGE    118.00000   118.00000

PW CHANGE     H    K    L      Current       Change    Residue
:PTO001:      0    0    0  5.69131282E-02 -1.432E-07  8.673E-07
:PTO003:      0    2    0  1.51629150E-02 -4.320E-07 -8.176E-07
:PTO004:     -1    1    0  7.39073173E-02 -5.532E-07 -9.029E-08
:PTO005:      0    2   -1 -8.55743420E-02 -4.586E-07 -1.021E-06
:PTO006:      0    0   -2 -4.43346844E-02  4.483E-07  3.510E-07
:PTO007:     -1    1   -1 -9.19295042E-02 -2.936E-06 -4.339E-06
:PTO008:      0    2   -2 -1.46287974E-02 -1.165E-06 -1.317E-06
:PTO009:     -1    1   -2 -7.47452890E-02 -8.699E-07 -1.687E-06
:PTO011:     -1    3    0 -1.19540779E-02 -2.409E-06 -3.233E-06
:PTO012:     -1    3   -1 -5.28583198E-02 -2.551E-07 -8.866E-07
:PTO013:      0    4    0 -9.51342683E-03 -7.591E-08 -1.889E-07
:PTO014:      0    2   -3  2.19218568E-02 -1.354E-06 -1.356E-06

:ENE  : ********** TOTAL ENERGY IN Ry =       -36944.20746200

       TOTAL FORCE IN mRy/a.u. = |F|     Fx             Fy             Fz     with/without FOR in case.in2
:FOR001:   1.ATOM         23.922          0.000          0.000        -23.922 partial forces
       TOTAL FORCE WITH RESPECT TO GLOBAL CARTESIAN COORDINATES:
:FCA001:   1.ATOM                         0.000        -23.922          0.000 partial forces
       TOTAL FORCE WITH RESPECT TO THE GLOBAL COORDINATE SYSTEM:
:FGL001:   1.ATOM                 0.000000000   -23.921867841     0.000000000 partial forces
 Flat Integration
 New Mode for Coulomb Integral
 Consistent 3/8+Simpson combinations
 Extension of core to zero
 LDM version in phi
 Fifth-order quadrature in outwin


            ---------
:ITE012: 12. ITERATION
            ---------

:NATO :    1 INDEPENDENT AND    2 TOTAL ATOMS IN UNITCELL
       SUBSTANCE: aU                                                          

       LATTICE                      = CXY 
:POT  : POTENTIAL OPTION EX_LDA EC_LDA VX_LDA VC_LDA
:LAT  : LATTICE CONSTANTS=  6.18760 12.55620 10.84003    1.571    1.571    1.571
:VOL  : UNIT CELL VOLUME =     421.09601
       MODE OF CALCULATION IS       = RELA
       NON-SPINPOLARIZED CALCULATION
:IFFT  : FFT-parameters:   48   96   90 Factor: 2.00


   CONVERGENCE PARAMETER FOR PSEUDOCHARGE: NCON=  9
   MAXIMAL VALUE OF RMT(JATOM)*ABSK(NKK) : RK  =27.59478


:VKCOUL :  VK-COUL convergence: 0.122E-06
       ATOMNUMBER=  1 Pr1        VCOUL-ZERO =  0.18775E+00
:EFG001:                        EFG         =    -8.95261   *10**21  V / m**2
                               V20  TOT/SRF=    -7.75319    -0.03543
                               V22  TOT/SRF=    -0.69692    -0.00216
                               V22M TOT/SRF=     0.00000     0.00000
                               V21  TOT/SRF=     0.00000     0.00000
                               V21M TOT/SRF=     0.00000     0.00000

              3.77938    0.00000    0.00000        3.77938    0.00000    0.00000
              0.00000    5.17323    0.00000        0.00000    5.17323    0.00000
              0.00000    0.00000   -8.95261        0.00000    0.00000   -8.95261

         MAIN DIRECTIONS OF THE EFG   1.0000  0.0000  0.0000
                                      0.0000  1.0000  0.0000
                                      0.0000  0.0000  1.0000
:ANG001:  ANGLE WITH OLD X-AXIS =         0.0

:ETA001:                         ASYMM. ETA =     0.15569


     HELLMANN-FEYNMAN-FORCE IN mRy/a.u. = |F|  Fx       Fy             Fz
:FHF001:   1.ATOM   1524.215643169901      0.000000000000      0.000000000000  -1524.215643169901

:FIT001: LUSE= 13 SIGMA OF V-XC FIT FOR ATOM  1  0.5756443E-04
:FIT001: LUSE= 13 SIGMA OF V-XC FIT FOR ATOM  1  0.5756443E-04
:DEN  : DENSITY INTEGRAL  =        -14160.48525068   (Ry)
       ELS_POTENTIAL_AT Z=0 and Z=0.5:   0.78189   0.78189
       ELS_POTENTIAL_AT Y=0 and Y=0.5:   0.05866   0.05866
:VZERO:v0,v0c,v0x   0.17102   0.78189  -0.61087 v5,v5c,v5x   0.17102   0.78189  -0.61087
:VZERY:v0,v0c,v0x  -0.75693   0.05866  -0.81559 v5,v5c,v5x  -0.75693   0.05866  -0.81559
:VZERX:v0,v0c,v0x  -1.15990  -0.38395  -0.77595 v5,v5c,v5x  -1.15990  -0.38395  -0.77595
:LMAX-WF:   10   Non-Spherical LMAX:   4

          ATOMIC SPHERE DEPENDENT PARAMETERS FOR ATOM  Pr1       
:e__0001: OVERALL ENERGY PARAMETER IS    0.5299
          OVERALL BASIS SET ON ATOM IS LAPW
:E0_0001: E( 0)=    0.5299
             APW+lo
:E0_0001: E( 0)=   -1.9262   E(BOTTOM)=   -2.561   E(TOP)=   -1.291  4  5   194
             LOCAL ORBITAL
:E1_0001: E( 1)=    0.9299
             APW+lo
:E1_0001: E( 1)=   -0.4558   E(BOTTOM)=   -1.413   E(TOP)=    0.501  3  4   197
             LOCAL ORBITAL
:E3_0001: E( 3)=    0.7199   E(BOTTOM)=    0.514   E(TOP)=    0.926  0  1   120
             APW+lo
:E2_0001: E( 2)=    0.5299   E(BOTTOM)=    0.328   E(TOP)= -200.000  2 -1    84
             APW+lo

       K=   0.06250   0.00000   0.06250            1
:RKM  : MATRIX SIZE   407LOs:  40  RKM= 8.48  WEIGHT= 4.00  PGR:    
       EIGENVALUES ARE:
:EIG00001:      -1.9063318   -1.8840672   -0.6490071   -0.5446957   -0.5209230
:EIG00006:      -0.5116863   -0.5017921   -0.5016434    0.5051199    0.6250162
:EIG00011:       0.7204672    0.7230556    0.7231122    0.7263178    0.7321704
:EIG00016:       0.7454901    0.7503395    0.7506519    0.7540001    0.7572744
:EIG00021:       0.7623937    0.7660338    0.7663810    0.7744709    0.8049088
:EIG00026:       0.8222573    0.9111470    0.9207680    0.9680020    0.9920352
:EIG00031:       1.0055534    1.1157127    1.1571026    1.2118603    1.5159138
:EIG00036:       1.5465297    1.6016517    1.6250465    1.7842583    1.8413288
:EIG00041:       1.9401514    2.0364832    2.1337565    2.1502857
       ********************************************************

:KPT   :      NUMBER OF K-POINTS:   288
:GAP (global)   :    0.0    Ry =     0.0   eV (metal)
         Bandranges (emin - emax) and occupancy:
:BAN00004:   4   -0.629519   -0.544696  2.00000000
:BAN00005:   5   -0.613353   -0.520923  2.00000000
:BAN00006:   6   -0.594402   -0.506314  2.00000000
:BAN00007:   7   -0.569884   -0.501792  2.00000000
:BAN00008:   8   -0.527454   -0.496871  2.00000000
:BAN00009:   9    0.499221    0.691398  2.00000000
:BAN00010:  10    0.606557    0.707556  2.00000000
:BAN00011:  11    0.648372    0.727559  2.00000000
:BAN00012:  12    0.696794    0.731285  1.99333227
:BAN00013:  13    0.709653    0.741239  1.43445235
:BAN00014:  14    0.720836    0.746860  0.57221538
:BAN00015:  15    0.731696    0.749608  0.00000000
:BAN00016:  16    0.736219    0.752313  0.00000000
:BAN00017:  17    0.741937    0.753890  0.00000000
:BAN00018:  18    0.745104    0.756207  0.00000000
:BAN00019:  19    0.749326    0.758874  0.00000000
        Energy to separate low and high energystates:    0.44922


:NOE  : NUMBER OF ELECTRONS          =   26.000

:FER  : F E R M I - ENERGY(TETRAH.M.)=   0.7298355138
:GMA  : POTENTIAL AND CHARGE CUT-OFF  12.00 Ry**.5

:POS001: ATOM   -1 X,Y,Z = 0.00000 0.89750 0.25000  MULT= 2  ZZ= 59.000  Pr1       

       LMMAX 16
       LM=   0 0  1 0  2 0  2 2  3 0  3 2  4 0  4 2  4 4  5 0  5 2  5 4  6 0  6 2  6 4  6 6

:CHA001: TOTAL VALENCE CHARGE INSIDE SPHERE   1 =   9.5586    (RMT=  2.3000 )
:PCS001: PARTIAL CHARGES SPHERE =  1 S,P,D,F,PX,PY,PZ,D-Z2,D-X2Y2,D-XY,D-XZ,D-YZ 
:QTL001: 1.9420 5.0090 0.5858 2.0214 1.6668 1.6660 1.6761 0.1106 0.1051 0.1251 0.1164 0.1285
        Q-s-low E-s-low   Q-p-low E-p-low   Q-d-low E-d-low   Q-f-low E-f-low
:EPL001:  1.8692 -1.8838    4.9385 -0.5629    0.0032 -0.5928    0.0009 -0.6025
        Q-s-hi  E-s-hi    Q-p-hi  E-p-hi    Q-d-hi  E-d-hi    Q-f-hi  E-f-hi 
:EPH001:  0.0728  0.6340    0.0705  0.6705    0.5825  0.6734    2.0204  0.7127

                      VXX         VYY         VZZ       UP TO R
:VZZ001:             3.75865     5.15509    -8.91374       2.300

:CHA  : TOTAL VALENCE CHARGE INSIDE UNIT CELL =      26.000000

:SUM  : SUM OF EIGENVALUES =          -7.459658534


        1.ATOM      Pr1                  14 CORE STATES
       CORE-FORCE in mRy/a.u. = |F|      Fx             Fy             Fz
:FCO001:   1.ATOM   1500.582979426716      0.000000000000      0.000000000000   1500.582979426716

:1S 001: 1S               -3066.875186879 Ry
:2S 001: 2S                -492.628698047 Ry
:2PP001: 2P*               -465.727588775 Ry
:2P 001: 2P                -430.330184833 Ry
:3S 001: 3S                -105.720965992 Ry
:3PP001: 3P*                -94.258738324 Ry
:3P 001: 3P                 -87.250902174 Ry
:3DD001: 3D*                -67.177703021 Ry
:3D 001: 3D                 -65.666160372 Ry
:4S 001: 4S                 -20.392756384 Ry
:4PP001: 4P*                -16.099088231 Ry
:4P 001: 4P                 -14.571023551 Ry
:4DD001: 4D*                 -7.502682910 Ry
:4D 001: 4D                  -7.233047144 Ry
:CINT001 Core Integral Atom   1   45.998502

       DENSITY AT NUCLEUS
        JATOM        VALENCE       SEMI-CORE          CORE           TOTAL
:RTO001:   1      649.406407        0.000000   656825.592998   657474.999405
     
       CHARGES OF NEW CHARGE DENSITY
:NTO   : INTERSTITIAL CHARGE =     6.882831
:NPC   : PW Pseudocharge     =    17.072681
:NTO001: CHARGE SPHERE  1    =    55.557087

:NEC01: NUCLEAR AND ELECTRONIC CHARGE    118.00000   117.99700
     
       CHARGES OF OLD CHARGE DENSITY
:OTO   : INTERSTITIAL CHARGE =     6.885833
:OPC   : PW Pseudocharge     =    17.080058
:OTO001: CHARGE SPHERE  1    =    55.557083

:NEC02: NUCLEAR AND ELECTRONIC CHARGE    118.00000   118.00000
     
       CONVERGENCE TEST
:DTO001: DIFFERENCE IN SPHERE  1 =  0.0000380

:DIS  :  CHARGE DISTANCE       ( 0.0000380 for atom    1 spin 1)      0.0000380
 PW Mixed is          446
 
******************************************************
* MULTISECANT MIXING VER9 RELEASE 10.4.0              *
* Standard Mode with controls                        *
* Fixed density scale                                *
* Regularization       1.000E-04                     *
* Trust Upper Limit    5.000E+00                     *
* Max Number of Memory Steps    8                    *
******************************************************
 
:PWTMP   3.1917E+02  1.9467E+02  4.2110E+02
:PLANE:  PW TOTAL      4.9944 DISTAN   4.32E-05  8.65E-04 %
:CHARG:  CLM/ATOM   1381.9536 DISTAN   1.10E-04  7.96E-06 %
 
Step History
        DMIX         DMIXT        Red     Pred      Trust     Lambda    MagRel    MagAbs     Beta
  4   4.9967E-02   4.9967E-02  8.08E-01  9.51E-01  2.89E-01  1.28E+00  8.22E-02  6.50E-02  9.40E-01
  5   1.2492E-01   1.1449E-01  6.60E-01  7.81E-01  3.94E-01  8.26E-01  3.94E-01  2.52E-01  1.00E+00
  6   2.3342E-01   2.3304E-01  4.57E-01  7.77E-01  5.45E-01  8.55E-01  5.45E-01  2.30E-01  1.00E+00
  7   3.1096E-01   3.1082E-01  2.73E-01  5.34E-01  7.27E-01  7.38E-01  7.27E-01  1.40E-01  1.00E+00
  8   2.9523E-01   2.9523E-01  3.86E-01  6.14E-01  9.70E-01  1.11E+00  6.62E-01  3.49E-02  1.00E+00
  9   3.2447E-01   3.2447E-01  4.05E-01  3.75E-01  1.29E+00  1.64E+00  4.45E-01  9.05E-03  1.00E+00
 10   2.7117E-01   2.7117E-01  3.58E-01  3.36E-01  1.72E+00  1.75E+00  1.86E-01  1.53E-03  9.84E-01
 11   2.8284E-01   2.8284E-01  3.63E-01  5.06E-01  2.30E+00  1.70E+00  2.98E-01  8.77E-04  1.00E+00
 12   3.5000E-01   3.5000E-01 -1.00E+00  1.97E-01  3.06E+00  1.00E+00  7.22E-01  7.71E-04  1.00E+00
:JACOBIANS    1.098E+00   2.837E+00
  
:NORMS:  1/Froebius, Min, Max, Used   0.7328E+00  0.5294E+00  0.9982E+00  0.9436E+00
:INFO :  Number of Memory Steps    8 Skipping    3
:INFO :  SLambda=    1.3683934895  Max    1.3683934895
:PREDicted Charge, CTotal, PW Trust    1.236E-04   2.472E-04   3.477E-05
:PREDicted DMix, Beta, BLim   5.7205E-02  1.0226E+00  1.7153E+00

Eigenvalues, unscaled except for SY+YY
   #     SY Real        SY Imag          SS             YY         SY+YY Real      SY+YY Imag
   1   2.816136E+00   0.000000E+00   2.816389E+00   3.162826E+00   6.811906E+00   0.000000E+00
   2   1.388109E+00   0.000000E+00   9.012554E-01   2.941029E+00   4.987599E+00   0.000000E+00
   3   6.442671E-01   0.000000E+00   4.394737E-01   9.788357E-01   1.855782E+00   0.000000E+00
   4   1.557373E-01   0.000000E+00   1.151895E-01   4.471379E-01   6.367484E-01   0.000000E+00
   5   7.439195E-02   0.000000E+00   1.360245E-02   3.305215E-01   5.058809E-01   0.000000E+00
   6   2.664469E-02   0.000000E+00   6.998089E-03   1.040380E-01   1.399166E-01   0.000000E+00
   7   6.831843E-04   0.000000E+00   2.348160E-03   3.291687E-02   4.020962E-03   0.000000E+00
   8   1.189961E-02   0.000000E+00   1.640361E-04   2.695397E-03   6.140464E-02   0.000000E+00
 
:INFO :  Singular value  6.814E+00 Weight  1.000E+00 Projection  2.677E-05
:INFO :  Singular value  4.991E+00 Weight  1.000E+00 Projection  6.546E-06
:INFO :  Singular value  1.855E+00 Weight  1.000E+00 Projection -2.061E-05
:INFO :  Singular value  6.367E-01 Weight  1.000E+00 Projection -5.017E-05
:INFO :  Singular value  5.056E-01 Weight  1.000E+00 Projection  2.772E-05
:INFO :  Singular value  1.399E-01 Weight  1.000E+00 Projection -1.234E-04
:INFO :  Singular value  6.140E-02 Weight  1.000E+00 Projection -2.603E-05
:INFO :  Singular value  4.021E-03 Weight  9.939E-01 Projection -3.732E-04
:RANK :  ACTIVE   7.99/8  =  99.92 % ; YY RANK   7.99/8  =  99.83 %
 
:BLIM :  VZERO Control Off
:TRUST:  Step 1.14E+01  Charge 2.46E-02 (e) CTO  8.19E-02 (e) PW  1.26E-01 (e)
:DIRM :  MEMORY  8/8  SCALE   1.000 RED  0.11 PRED  0.20 NEXT  0.76 
:TRAVE:  Charge 1.38E-04 (e) CTO  2.76E-04 (e) PW  7.59E-04 (e)
:DIRP :  |MSR1|= 1.781E-05 |PRATT|= 4.323E-05 ANGLE=  21.6 DEGREES
:DIRQ :  |MSR1|= 5.111E-05 |PRATT|= 1.100E-04 ANGLE=  45.6 DEGREES
:DIRT :  |MSR1|= 5.412E-05 |PRATT|= 1.182E-04 ANGLE=  43.4 DEGREES
:MIX  :   MSE1   REGULARIZATION:  3.16E-04 GREED: 0.18683  Newton 1.00  0.4580                
     
       CHARGES OF MIXED CHARGE DENSITY
:CTO   : INTERSTITIAL CHARGE =     6.885827
:CPC   : PW Pseudocharge     =    17.080077
:CTO001: CHARGE SPHERE  1    =    55.557087

:NEC03: NUCLEAR AND ELECTRONIC CHARGE    118.00000   118.00000

PW CHANGE     H    K    L      Current       Change    Residue
:PTO001:      0    0    0  5.69131576E-02  2.943E-08  1.172E-07
:PTO003:      0    2    0  1.51628762E-02 -3.884E-08 -1.090E-07
:PTO004:     -1    1    0  7.39073561E-02  3.882E-08  2.685E-07
:PTO005:      0    2   -1 -8.55743863E-02 -4.430E-08 -1.735E-07
:PTO006:      0    0   -2 -4.43346778E-02  6.586E-09 -4.911E-08
:PTO007:     -1    1   -1 -9.19295834E-02 -7.921E-08 -1.251E-07
:PTO008:      0    2   -2 -1.46287342E-02  6.313E-08  3.418E-07
:PTO009:     -1    1   -2 -7.47454201E-02 -1.311E-07 -4.072E-07
:PTO011:     -1    3    0 -1.19542552E-02 -1.773E-07 -4.380E-07
:PTO012:     -1    3   -1 -5.28584265E-02 -1.067E-07 -4.965E-07
:PTO013:      0    4    0 -9.51341752E-03  9.308E-09 -2.418E-08
:PTO014:      0    2   -3  2.19218377E-02 -1.905E-08  1.186E-07

:ENE  : ********** TOTAL ENERGY IN Ry =       -36944.20746185

       TOTAL FORCE IN mRy/a.u. = |F|     Fx             Fy             Fz     with/without FOR in case.in2
:FOR001:   1.ATOM         23.633          0.000          0.000        -23.633 partial forces
       TOTAL FORCE WITH RESPECT TO GLOBAL CARTESIAN COORDINATES:
:FCA001:   1.ATOM                         0.000        -23.633          0.000 partial forces
       TOTAL FORCE WITH RESPECT TO THE GLOBAL COORDINATE SYSTEM:
:FGL001:   1.ATOM                 0.000000000   -23.632663743     0.000000000 partial forces
