
:LABEL1: Calculations in /home/ykent/GWIEN/example/Pr/aU/V9/case
:LABEL2: on didymium-2.cmpgroup.ameslab.gov at Fri Jul 10 14:12:04 CDT 2020
:LABEL3: using WIEN2k_19.1 (Release 25/6/2019) in /home/ykent/opt/src/WIEN2k_19.1
:LABEL4: using the command: run_lapw -so -i 70 -cc 0.0001

:LABEL1: Calculations in /home/ykent/GWIEN/example/Pr/aU/V9/case
:LABEL2: on didymium-2.cmpgroup.ameslab.gov at Fri Jul 10 14:18:54 CDT 2020
:LABEL3: using WIEN2k_19.1 (Release 25/6/2019) in /home/ykent/opt/src/WIEN2k_19.1
:LABEL4: using the command: run_lapw -so -i 70 -cc 0.0001
 Flat Integration
 New Mode for Coulomb Integral
 Consistent 3/8+Simpson combinations
 Extension of core to zero
 LDM version in phi
 Fifth-order quadrature in outwin


            ---------
:ITE019: 19. ITERATION
            ---------

:NATO :    1 INDEPENDENT AND    2 TOTAL ATOMS IN UNITCELL
       SUBSTANCE: aU                                                          

       LATTICE                      = CXY 
:POT  : POTENTIAL OPTION EX_LDA EC_LDA VX_LDA VC_LDA
:LAT  : LATTICE CONSTANTS=  5.76241 11.69339 10.09514    1.571    1.571    1.571
:VOL  : UNIT CELL VOLUME =     340.11595
       MODE OF CALCULATION IS       = RELA
       NON-SPINPOLARIZED CALCULATION
:IFFT  : FFT-parameters:   48   96   80 Factor: 2.00


   CONVERGENCE PARAMETER FOR PSEUDOCHARGE: NCON=  9
   MAXIMAL VALUE OF RMT(JATOM)*ABSK(NKK) : RK  =27.59891


:VKCOUL :  VK-COUL convergence: 0.200E-06
       ATOMNUMBER=  1 Pr1        VCOUL-ZERO =  0.41100E+00
:EFG001:                        EFG         =    -9.70363   *10**21  V / m**2
                               V20  TOT/SRF=    -8.40359    -0.05248
                               V22  TOT/SRF=    -2.44131    -0.00806
                               V22M TOT/SRF=     0.00000     0.00000
                               V21  TOT/SRF=     0.00000     0.00000
                               V21M TOT/SRF=     0.00000     0.00000

              2.41051    0.00000    0.00000        2.41051    0.00000    0.00000
              0.00000    7.29312    0.00000        0.00000    7.29312    0.00000
              0.00000    0.00000   -9.70363        0.00000    0.00000   -9.70363

         MAIN DIRECTIONS OF THE EFG   1.0000  0.0000  0.0000
                                      0.0000  1.0000  0.0000
                                      0.0000  0.0000  1.0000
:ANG001:  ANGLE WITH OLD X-AXIS =         0.0

:ETA001:                         ASYMM. ETA =     0.50317


     HELLMANN-FEYNMAN-FORCE IN mRy/a.u. = |F|  Fx       Fy             Fz
:FHF001:   1.ATOM   1657.674104588858      0.000000000000      0.000000000000  -1657.674104588858

:FIT001: LUSE= 13 SIGMA OF V-XC FIT FOR ATOM  1  0.5988572E-04
:FIT001: LUSE= 13 SIGMA OF V-XC FIT FOR ATOM  1  0.5988572E-04
:DEN  : DENSITY INTEGRAL  =        -14185.46549831   (Ry)
       ELS_POTENTIAL_AT Z=0 and Z=0.5:   0.89828   0.89828
       ELS_POTENTIAL_AT Y=0 and Y=0.5:   0.02793   0.02793
:VZERO:v0,v0c,v0x   0.22198   0.89828  -0.67630 v5,v5c,v5x   0.22198   0.89828  -0.67630
:VZERY:v0,v0c,v0x  -0.86558   0.02793  -0.89352 v5,v5c,v5x  -0.86558   0.02793  -0.89352
:VZERX:v0,v0c,v0x  -1.23542  -0.39340  -0.84202 v5,v5c,v5x  -1.23542  -0.39340  -0.84202
:LMAX-WF:   10   Non-Spherical LMAX:   4

          ATOMIC SPHERE DEPENDENT PARAMETERS FOR ATOM  Pr1       
:e__0001: OVERALL ENERGY PARAMETER IS    0.7355
          OVERALL BASIS SET ON ATOM IS LAPW
:E0_0001: E( 0)=    0.7355
             APW+lo
:E0_0001: E( 0)=   -1.7017   E(BOTTOM)=   -2.338   E(TOP)=   -1.066  4  5   213
             LOCAL ORBITAL
:E1_0001: E( 1)=    1.1355
             APW+lo
:E1_0001: E( 1)=   -0.2316   E(BOTTOM)=   -1.190   E(TOP)=    0.727  3  4   221
             LOCAL ORBITAL
:E3_0001: E( 3)=    0.9381   E(BOTTOM)=    0.733   E(TOP)=    1.143  0  1   126
             APW+lo
:E2_0001: E( 2)=    0.7355   E(BOTTOM)=    0.548   E(TOP)= -200.000  2 -1   123
             APW+lo

       K=   0.06250   0.00000   0.06250            1
:RKM  : MATRIX SIZE   323LOs:  40  RKM= 8.47  WEIGHT= 4.00  PGR:    
       EIGENVALUES ARE:
:EIG00001:      -1.7074602   -1.6617381   -0.4871313   -0.3138286   -0.2739556
:EIG00006:      -0.2584826   -0.2416318   -0.2414465    0.7413730    0.8109853
:EIG00011:       0.9179023    0.9225791    0.9237900    0.9295777    0.9401247
:EIG00016:       0.9588598    0.9657080    0.9667986    0.9720468    0.9763144
:EIG00021:       0.9844390    0.9861395    0.9872523    1.0023601    1.0255304
:EIG00026:       1.0493770    1.1480439    1.1517647    1.2208502    1.2566891
:EIG00031:       1.2756024    1.4321273    1.4495790    1.5259615    1.8291139
:EIG00036:       1.8776934    1.9133314    2.0371246    2.1321541    2.2064101
:EIG00041:       2.3660316    2.4445181    2.5756553    2.6035994    2.7567431
:EIG00046:       2.7633761    2.7751647    2.9285663    2.9405703    3.0772016
 
:EIG00051:       3.1487517    3.2484191    3.2497864    3.3911461    3.4490408
:EIG00056:       3.4554988    3.5213628    3.6628766    3.6928874    3.8020474
:EIG00061:       3.8302720    3.9516526    3.9967508    4.0219711    4.0785123
:EIG00066:       4.2390030    4.2413334    4.3284416    4.3544013    4.3939049
:EIG00071:       4.4382641    4.5042003    4.5064042    4.6347954    4.6437999
:EIG00076:       4.6734365    4.7146626    4.7539584    4.7582648    4.8331052
:EIG00081:       4.8397410    4.8731953    4.9225044    4.9562298    4.9737386
:EIG00086:       5.0934848    5.1389981    5.2126514    5.2494012    5.2877485
:EIG00091:       5.3243081    5.3287248    5.3943044    5.4266823    5.4279966
:EIG00096:       5.4595537    5.5362668    5.5381840    5.6106733    5.6525100
 
:EIG00101:       5.7289089    5.8466930    5.9004684    5.9609464    5.9696355
:EIG00106:       6.0615375    6.0719539    6.1256832    6.1810034    6.2584027
:EIG00111:       6.3548381    6.3855556    6.5036268    6.5384129    6.5949650
:EIG00116:       6.6421976    6.7279272    6.7385751    6.7914544    6.8249892
:EIG00121:       6.9111504    6.9460230    6.9952551    7.0331396    7.1111390
:EIG00126:       7.1536379    7.2001363    7.2299682    7.2783986    7.3233778
:EIG00131:       7.3903924    7.4160284    7.4225700    7.5509970    7.6017601
:EIG00136:       7.6099642    7.6259855    7.7432044    7.7691851    7.7808116
:EIG00141:       7.7925799    7.8166638    7.8401878    7.9436344    7.9737516
:EIG00146:       7.9819859    8.0267162    8.1117889    8.1492982    8.1727491
 
:EIG00151:       8.2218180    8.2281366    8.2816623
       ********************************************************

:KPT   :      NUMBER OF K-POINTS:   288
   0.0   0.0 angle (M,z), angle (M,x) deg
 
        SPIN-ORBIT EIGENVALUES:
     K=   0.06250   0.00000   0.06250            1
      MATRIX SIZE=  306   WEIGHT= 4.00
     EIGENVALUES ARE:
          -1.7074611   -1.7074611   -1.6617387   -1.6617387   -0.5363507
          -0.5363507   -0.4125632   -0.4125632   -0.3193827   -0.3193827
          -0.1982763   -0.1982763   -0.1945305   -0.1945305   -0.1755356
          -0.1755356    0.7414679    0.7414679    0.8108704    0.8108704
           0.9151960    0.9151960    0.9195737    0.9195737    0.9211787
           0.9211787    0.9272218    0.9272218    0.9366248    0.9366248
           0.9496730    0.9496730    0.9607857    0.9607857    0.9700891
           0.9700891    0.9777130    0.9777130    0.9794966    0.9794966

           0.9864289    0.9864289    0.9893839    0.9893839    0.9914830
           0.9914830    1.0055866    1.0055866    1.0269472    1.0269472
           1.0496343    1.0496343    1.1436496    1.1436496    1.1560301
           1.1560301    1.2213508    1.2213508    1.2564086    1.2564087
           1.2762102    1.2762102    1.4320975    1.4320975    1.4498654
           1.4498654    1.5261154    1.5261154    1.8294761    1.8294761
           1.8777406    1.8777406    1.9133212    1.9133212    2.0370985
           2.0370985    2.1319274    2.1319274    2.2058662    2.2058662

           2.3661770    2.3661770    2.4439269    2.4439269    2.5749935
           2.5749935    2.6036360    2.6036360    2.7567109    2.7567109
           2.7635313    2.7635313    2.7744831    2.7744831    2.9255891
           2.9255891    2.9435918    2.9435918    3.0773632    3.0773632
           3.1482404    3.1482404    3.2403679    3.2403679    3.2564264
           3.2564264    3.3909274    3.3909274    3.4463243    3.4463243
           3.4586616    3.4586616    3.5200146    3.5200146    3.6633229
           3.6633229    3.6944055    3.6944055    3.8015393    3.8015393

           3.8315138    3.8315138    3.9541154    3.9541154    3.9987672
           3.9987672    4.0220201    4.0220201    4.0786912    4.0786912
           4.2384759    4.2384759    4.2420977    4.2420977    4.3285017
           4.3285017    4.3542741    4.3542741    4.3940340    4.3940340
           4.4386962    4.4386962
       ********************************************************
:GAP (global)   :    0.0    Ry =     0.0   eV (metal)
:GAP (this spin):    0.0    Ry =     0.0   eV (metal)
         Bandranges (emin - emax) and occupancy:
:BAN00018:  18    0.733722    0.881204  1.00000000
:BAN00019:  19    0.792273    0.898681  1.00000000
:BAN00020:  20    0.792273    0.898681  1.00000000
:BAN00021:  21    0.817764    0.928955  1.00000000
:BAN00022:  22    0.817764    0.928955  1.00000000
:BAN00023:  23    0.881558    0.934636  0.99290046
:BAN00024:  24    0.881558    0.934636  0.99290044
:BAN00025:  25    0.898084    0.947462  0.68794435
:BAN00026:  26    0.898084    0.947462  0.68794429
:BAN00027:  27    0.919725    0.950882  0.31915657
:BAN00028:  28    0.919725    0.950882  0.31915633
:BAN00029:  29    0.932864    0.954694  0.00000000
:BAN00030:  30    0.932864    0.954694  0.00000000
:BAN00031:  31    0.939054    0.963687  0.00000000
:BAN00032:  32    0.939054    0.963687  0.00000000
:BAN00033:  33    0.952837    0.972321  0.00000000
        Energy to separate low and high energystates:    0.68372


:NOE  : NUMBER OF ELECTRONS          =   26.000

:FER  : F E R M I - ENERGY(TETRAH.M.)=   0.9324207241
:GMA  : POTENTIAL AND CHARGE CUT-OFF  12.00 Ry**.5

:POS001: ATOM   -1 X,Y,Z = 0.00000 0.89750 0.25000  MULT= 2  ZZ= 59.000  Pr1       

       LMMAX 16
       LM=   0 0  1 0  2 0  2 2  3 0  3 2  4 0  4 2  4 4  5 0  5 2  5 4  6 0  6 2  6 4  6 6

:CHA001: TOTAL VALENCE CHARGE INSIDE SPHERE   1 =   9.7044    (RMT=  2.3000 )
:PCS001: PARTIAL CHARGES SPHERE =  1 S,P,D,F,PX,PY,PZ,D-Z2,D-X2Y2,D-XY,D-XZ,D-YZ 
:QTL001: 1.9386 4.9796 0.7142 2.0706 1.6584 1.6554 1.6659 0.1374 0.1268 0.1487 0.1461 0.1552
        Q-s-low E-s-low   Q-p-low E-p-low   Q-d-low E-d-low   Q-f-low E-f-low
:EPL001:  1.8688 -1.6591    4.9028 -0.3515    0.0098 -0.3649    0.0030 -0.3781
        Q-s-hi  E-s-hi    Q-p-hi  E-p-hi    Q-d-hi  E-d-hi    Q-f-hi  E-f-hi 
:EPH001:  0.0698  0.8449    0.0769  0.8728    0.7044  0.8593    2.0676  0.9077

                      VXX         VYY         VZZ       UP TO R
:VZZ001:             2.22334     6.83545    -9.05879       2.300

:CHA  : TOTAL VALENCE CHARGE INSIDE UNIT CELL =      26.000002

:SUM  : SUM OF EIGENVALUES =          -2.089703075


        1.ATOM      Pr1                  14 CORE STATES
       CORE-FORCE in mRy/a.u. = |F|      Fx             Fy             Fz
:FCO001:   1.ATOM   1649.030579742733      0.000000000000      0.000000000000   1649.030579742733

:1S 001: 1S               -3066.661624922 Ry
:2S 001: 2S                -492.415623926 Ry
:2PP001: 2P*               -465.514152537 Ry
:2P 001: 2P                -430.116871356 Ry
:3S 001: 3S                -105.512532691 Ry
:3PP001: 3P*                -94.050110358 Ry
:3P 001: 3P                 -87.042403713 Ry
:3DD001: 3D*                -66.968546653 Ry
:3D 001: 3D                 -65.457073279 Ry
:4S 001: 4S                 -20.180566917 Ry
:4PP001: 4P*                -15.886444044 Ry
:4P 001: 4P                 -14.357756419 Ry
:4DD001: 4D*                 -7.288163573 Ry
:4D 001: 4D                  -7.018311902 Ry
:CINT001 Core Integral Atom   1   45.998504

       DENSITY AT NUCLEUS
        JATOM        VALENCE       SEMI-CORE          CORE           TOTAL
:RTO001:   1      647.533820        0.000000   656826.177251   657473.711070
     
       CHARGES OF NEW CHARGE DENSITY
:NTO   : INTERSTITIAL CHARGE =     6.591208
:NPC   : PW Pseudocharge     =    17.365316
:NTO001: CHARGE SPHERE  1    =    55.702901

:NEC01: NUCLEAR AND ELECTRONIC CHARGE    118.00000   117.99701
     
       CHARGES OF OLD CHARGE DENSITY
:OTO   : INTERSTITIAL CHARGE =     6.660139
:OPC   : PW Pseudocharge     =    17.416953
:OTO001: CHARGE SPHERE  1    =    55.669931

:NEC02: NUCLEAR AND ELECTRONIC CHARGE    118.00000   118.00000
     
       CONVERGENCE TEST
:DTO001: DIFFERENCE IN SPHERE  1 =  0.0682264

:DIS  :  CHARGE DISTANCE       ( 0.0682264 for atom    1 spin 1)      0.0682264
 PW Mixed is          360
 
******************************************************
* MULTISECANT MIXING VER9 RELEASE 10.4.0              *
* Standard Mode with controls                        *
* Fixed density scale                                *
* Regularization       1.000E-04                     *
* Trust Upper Limit    5.000E+00                     *
* Max Number of Memory Steps    8                    *
******************************************************
 
:PWTMP   2.3819E+02  1.9467E+02  3.4012E+02
:PLANE:  PW TOTAL      5.6499 DISTAN   1.67E-02  2.96E-01 %
:CHARG:  CLM/ATOM   1381.9548 DISTAN   9.91E-02  7.17E-03 %
 
Step History
        DMIX         DMIXT        Red     Pred      Trust     Lambda    MagRel    MagAbs     Beta
  1   3.5000E-02   3.5000E-02 -1.00E+00  1.00E+00 -1.00E+01  1.00E+00  3.50E-02  3.50E-02  1.00E+00
:INFO :  Note, Pratt in use
:TRUST:  Step 3.75E-02  Charge 7.50E-02 (e) CTO  2.50E-01 (e) PW  3.50E-01 (e)
:DIRM :  MEMORY  0/ 8 SCALE   1.000
Performing Pseudo Compensation
Final Pseudo Compensation Rescaling     1.00000E+00
:MIX  :   PRATT  REGULARIZATION:  1.00E-04 GREED: 0.02500                  
     
       CHARGES OF MIXED CHARGE DENSITY
:CTO   : INTERSTITIAL CHARGE =     6.658490
:CPC   : PW Pseudocharge     =    17.403328
:CTO001: CHARGE SPHERE  1    =    55.670755

:NEC03: NUCLEAR AND ELECTRONIC CHARGE    118.00000   118.00000

PW CHANGE     H    K    L      Current       Change    Residue
:PTO001:      0    0    0  7.07459284E-02 -4.491E-05 -3.225E-04
:PTO003:      0    2    0  1.73232605E-02 -1.308E-05  1.732E-05
:PTO004:     -1    1    0  8.29350651E-02 -7.057E-05 -8.568E-05
:PTO005:      0    2   -1 -9.52594139E-02  8.202E-05  7.658E-05
:PTO006:      0    0   -2 -4.93709734E-02  4.254E-05  3.785E-05
:PTO007:     -1    1   -1 -1.00386194E-01  9.074E-05  1.084E-04
:PTO008:      0    2   -2 -1.47448850E-02  1.500E-05  2.857E-05
:PTO009:     -1    1   -2 -7.46210393E-02  7.188E-05  5.119E-05
:PTO011:     -1    3    0 -1.15439627E-02  1.154E-05  3.492E-05
:PTO012:     -1    3   -1 -4.84239651E-02  4.581E-05  9.299E-06
:PTO013:      0    4    0 -8.44873522E-03  8.009E-06  6.368E-06
:PTO014:      0    2   -3  1.94874934E-02 -1.822E-05 -2.439E-05

:ENE  : ********** TOTAL ENERGY IN Ry =       -36944.33397885

       TOTAL FORCE IN mRy/a.u. = |F|     Fx             Fy             Fz     with/without FOR in case.in2
:FOR001:   1.ATOM          8.644          0.000          0.000         -8.644 partial forces
       TOTAL FORCE WITH RESPECT TO GLOBAL CARTESIAN COORDINATES:
:FCA001:   1.ATOM                         0.000         -8.644          0.000 partial forces
       TOTAL FORCE WITH RESPECT TO THE GLOBAL COORDINATE SYSTEM:
:FGL001:   1.ATOM                 0.000000000    -8.643524846     0.000000000 partial forces
 Flat Integration
 New Mode for Coulomb Integral
 Consistent 3/8+Simpson combinations
 Extension of core to zero
 LDM version in phi
 Fifth-order quadrature in outwin


            ---------
:ITE020: 20. ITERATION
            ---------

:NATO :    1 INDEPENDENT AND    2 TOTAL ATOMS IN UNITCELL
       SUBSTANCE: aU                                                          

       LATTICE                      = CXY 
:POT  : POTENTIAL OPTION EX_LDA EC_LDA VX_LDA VC_LDA
:LAT  : LATTICE CONSTANTS=  5.76241 11.69339 10.09514    1.571    1.571    1.571
:VOL  : UNIT CELL VOLUME =     340.11595
       MODE OF CALCULATION IS       = RELA
       NON-SPINPOLARIZED CALCULATION
:IFFT  : FFT-parameters:   48   96   80 Factor: 2.00


   CONVERGENCE PARAMETER FOR PSEUDOCHARGE: NCON=  9
   MAXIMAL VALUE OF RMT(JATOM)*ABSK(NKK) : RK  =27.59891


:VKCOUL :  VK-COUL convergence: 0.200E-06
       ATOMNUMBER=  1 Pr1        VCOUL-ZERO =  0.41075E+00
:EFG001:                        EFG         =    -9.68908   *10**21  V / m**2
                               V20  TOT/SRF=    -8.39099    -0.05243
                               V22  TOT/SRF=    -2.43796    -0.00803
                               V22M TOT/SRF=     0.00000     0.00000
                               V21  TOT/SRF=     0.00000     0.00000
                               V21M TOT/SRF=     0.00000     0.00000

              2.40658    0.00000    0.00000        2.40658    0.00000    0.00000
              0.00000    7.28250    0.00000        0.00000    7.28250    0.00000
              0.00000    0.00000   -9.68908        0.00000    0.00000   -9.68908

         MAIN DIRECTIONS OF THE EFG   1.0000  0.0000  0.0000
                                      0.0000  1.0000  0.0000
                                      0.0000  0.0000  1.0000
:ANG001:  ANGLE WITH OLD X-AXIS =         0.0

:ETA001:                         ASYMM. ETA =     0.50324


     HELLMANN-FEYNMAN-FORCE IN mRy/a.u. = |F|  Fx       Fy             Fz
:FHF001:   1.ATOM   1656.579824710613      0.000000000000      0.000000000000  -1656.579824710613

:FIT001: LUSE= 13 SIGMA OF V-XC FIT FOR ATOM  1  0.5980559E-04
:FIT001: LUSE= 13 SIGMA OF V-XC FIT FOR ATOM  1  0.5980559E-04
:DEN  : DENSITY INTEGRAL  =        -14185.63473029   (Ry)
       ELS_POTENTIAL_AT Z=0 and Z=0.5:   0.89789   0.89789
       ELS_POTENTIAL_AT Y=0 and Y=0.5:   0.02788   0.02788
:VZERO:v0,v0c,v0x   0.22164   0.89789  -0.67624 v5,v5c,v5x   0.22164   0.89789  -0.67624
:VZERY:v0,v0c,v0x  -0.86550   0.02788  -0.89338 v5,v5c,v5x  -0.86550   0.02788  -0.89338
:VZERX:v0,v0c,v0x  -1.23506  -0.39317  -0.84189 v5,v5c,v5x  -1.23506  -0.39317  -0.84189
:LMAX-WF:   10   Non-Spherical LMAX:   4

          ATOMIC SPHERE DEPENDENT PARAMETERS FOR ATOM  Pr1       
:e__0001: OVERALL ENERGY PARAMETER IS    0.7335
          OVERALL BASIS SET ON ATOM IS LAPW
:E0_0001: E( 0)=    0.7335
             APW+lo
:E0_0001: E( 0)=   -1.7013   E(BOTTOM)=   -2.337   E(TOP)=   -1.065  4  5   210
             LOCAL ORBITAL
:E1_0001: E( 1)=    1.1335
             APW+lo
:E1_0001: E( 1)=   -0.2313   E(BOTTOM)=   -1.190   E(TOP)=    0.728  3  4   216
             LOCAL ORBITAL
:E3_0001: E( 3)=    0.9391   E(BOTTOM)=    0.734   E(TOP)=    1.144  0  1   117
             APW+lo
:E2_0001: E( 2)=    0.7335   E(BOTTOM)=    0.548   E(TOP)= -200.000  2 -1   120
             APW+lo

       K=   0.06250   0.00000   0.06250            1
:RKM  : MATRIX SIZE   323LOs:  40  RKM= 8.47  WEIGHT= 4.00  PGR:    
       EIGENVALUES ARE:
:EIG00001:      -1.7071158   -1.6613656   -0.4870022   -0.3136186   -0.2737252
:EIG00006:      -0.2582237   -0.2413804   -0.2411787    0.7411977    0.8108450
:EIG00011:       0.9185424    0.9233276    0.9245735    0.9303218    0.9408653
:EIG00016:       0.9597588    0.9666268    0.9677267    0.9729643    0.9772017
:EIG00021:       0.9853820    0.9869832    0.9880544    1.0033193    1.0259851
:EIG00026:       1.0496036    1.1481391    1.1517324    1.2208362    1.2566867
:EIG00031:       1.2755989    1.4321100    1.4496183    1.5260222    1.8290459
:EIG00036:       1.8776243    1.9132281    2.0371226    2.1320132    2.2062896
:EIG00041:       2.3659361    2.4444081    2.5755380    2.6035215    2.7566372
:EIG00046:       2.7632982    2.7749924    2.9284479    2.9404198    3.0770356
 
:EIG00051:       3.1486449    3.2483185    3.2497349    3.3911192    3.4489111
:EIG00056:       3.4554392    3.5212525    3.6629660    3.6927906    3.8019217
:EIG00061:       3.8301923    3.9515622    3.9966420    4.0218154    4.0784736
:EIG00066:       4.2388257    4.2412295    4.3282566    4.3542160    4.3937659
:EIG00071:       4.4381650    4.5040261    4.5063379    4.6346072    4.6436276
:EIG00076:       4.6732448    4.7145214    4.7537645    4.7580962    4.8329007
:EIG00081:       4.8395585    4.8729983    4.9223633    4.9560600    4.9735141
:EIG00086:       5.0932253    5.1388131    5.2124739    5.2492764    5.2875172
:EIG00091:       5.3241782    5.3285307    5.3942794    5.4264831    5.4279615
:EIG00096:       5.4593192    5.5360389    5.5379835    5.6105633    5.6523462
 
:EIG00101:       5.7287643    5.8465306    5.9003096    5.9607296    5.9694170
:EIG00106:       6.0613994    6.0717523    6.1254420    6.1807990    6.2582437
:EIG00111:       6.3546960    6.3853834    6.5034851    6.5381950    6.5948328
:EIG00116:       6.6421528    6.7277480    6.7385813    6.7913563    6.8249284
:EIG00121:       6.9110328    6.9458945    6.9951654    7.0329817    7.1109496
:EIG00126:       7.1534649    7.1999631    7.2298144    7.2782626    7.3232075
:EIG00131:       7.3902390    7.4159007    7.4223681    7.5508678    7.6016315
:EIG00136:       7.6098418    7.6258140    7.7431354    7.7690258    7.7805800
:EIG00141:       7.7924410    7.8165213    7.8399619    7.9434469    7.9736184
:EIG00146:       7.9819686    8.0266307    8.1116097    8.1491363    8.1725586
 
:EIG00151:       8.2217101    8.2279333    8.2817553
       ********************************************************

:KPT   :      NUMBER OF K-POINTS:   288
   0.0   0.0 angle (M,z), angle (M,x) deg
 
        SPIN-ORBIT EIGENVALUES:
     K=   0.06250   0.00000   0.06250            1
      MATRIX SIZE=  306   WEIGHT= 4.00
     EIGENVALUES ARE:
          -1.7071167   -1.7071167   -1.6613663   -1.6613663   -0.5361747
          -0.5361747   -0.4122880   -0.4122880   -0.3191896   -0.3191896
          -0.1980418   -0.1980418   -0.1942982   -0.1942982   -0.1752971
          -0.1752971    0.7412927    0.7412927    0.8107310    0.8107310
           0.9158680    0.9158680    0.9203428    0.9203428    0.9219658
           0.9219658    0.9279858    0.9279858    0.9373960    0.9373960
           0.9506003    0.9506003    0.9616204    0.9616204    0.9709841
           0.9709841    0.9786231    0.9786232    0.9803778    0.9803778

           0.9872774    0.9872774    0.9901857    0.9901857    0.9923680
           0.9923680    1.0065418    1.0065418    1.0274295    1.0274295
           1.0498779    1.0498779    1.1437198    1.1437198    1.1560302
           1.1560302    1.2213364    1.2213364    1.2564078    1.2564078
           1.2762064    1.2762064    1.4320811    1.4320811    1.4499041
           1.4499041    1.5261758    1.5261758    1.8294082    1.8294082
           1.8776717    1.8776717    1.9132180    1.9132180    2.0370963
           2.0370963    2.1317868    2.1317868    2.2057456    2.2057456

           2.3660816    2.3660816    2.4438171    2.4438171    2.5748781
           2.5748781    2.6035564    2.6035564    2.7566046    2.7566046
           2.7634525    2.7634525    2.7743125    2.7743125    2.9254646
           2.9254646    2.9434481    2.9434481    3.0771977    3.0771977
           3.1481334    3.1481334    3.2402925    3.2402925    3.2563498
           3.2563498    3.3909005    3.3909005    3.4462087    3.4462087
           3.4585858    3.4585858    3.5199050    3.5199050    3.6634104
           3.6634104    3.6943094    3.6943094    3.8014150    3.8014150

           3.8314362    3.8314362    3.9540119    3.9540119    3.9986679
           3.9986679    4.0218649    4.0218649    4.0786523    4.0786523
           4.2383121    4.2383121    4.2419799    4.2419799    4.3283166
           4.3283166    4.3540890    4.3540890    4.3938949    4.3938949
           4.4385970    4.4385970
       ********************************************************
:GAP (global)   :    0.0    Ry =     0.0   eV (metal)
:GAP (this spin):    0.0    Ry =     0.0   eV (metal)
         Bandranges (emin - emax) and occupancy:
:BAN00018:  18    0.733545    0.881361  1.00000000
:BAN00019:  19    0.792121    0.899072  1.00000000
:BAN00020:  20    0.792121    0.899072  1.00000000
:BAN00021:  21    0.817644    0.929589  1.00000000
:BAN00022:  22    0.817644    0.929589  1.00000000
:BAN00023:  23    0.881768    0.935432  0.99293713
:BAN00024:  24    0.881768    0.935432  0.99293713
:BAN00025:  25    0.898464    0.948374  0.68903314
:BAN00026:  26    0.898464    0.948374  0.68903308
:BAN00027:  27    0.920332    0.951805  0.31802986
:BAN00028:  28    0.920332    0.951805  0.31802965
:BAN00029:  29    0.933623    0.955645  0.00000000
:BAN00030:  30    0.933623    0.955645  0.00000000
:BAN00031:  31    0.939851    0.964481  0.00000000
:BAN00032:  32    0.939851    0.964481  0.00000000
:BAN00033:  33    0.953720    0.973166  0.00000000
        Energy to separate low and high energystates:    0.68355


:NOE  : NUMBER OF ELECTRONS          =   26.000

:FER  : F E R M I - ENERGY(TETRAH.M.)=   0.9331900930
:GMA  : POTENTIAL AND CHARGE CUT-OFF  12.00 Ry**.5

:POS001: ATOM   -1 X,Y,Z = 0.00000 0.89750 0.25000  MULT= 2  ZZ= 59.000  Pr1       

       LMMAX 16
       LM=   0 0  1 0  2 0  2 2  3 0  3 2  4 0  4 2  4 4  5 0  5 2  5 4  6 0  6 2  6 4  6 6

:CHA001: TOTAL VALENCE CHARGE INSIDE SPHERE   1 =   9.6954    (RMT=  2.3000 )
:PCS001: PARTIAL CHARGES SPHERE =  1 S,P,D,F,PX,PY,PZ,D-Z2,D-X2Y2,D-XY,D-XZ,D-YZ 
:QTL001: 1.9388 4.9798 0.7177 2.0578 1.6584 1.6554 1.6660 0.1382 0.1276 0.1492 0.1468 0.1558
        Q-s-low E-s-low   Q-p-low E-p-low   Q-d-low E-d-low   Q-f-low E-f-low
:EPL001:  1.8688 -1.6587    4.9023 -0.3513    0.0098 -0.3647    0.0030 -0.3779
        Q-s-hi  E-s-hi    Q-p-hi  E-p-hi    Q-d-hi  E-d-hi    Q-f-hi  E-f-hi 
:EPH001:  0.0701  0.8451    0.0775  0.8731    0.7079  0.8596    2.0548  0.9083

                      VXX         VYY         VZZ       UP TO R
:VZZ001:             2.27687     6.89591    -9.17278       2.300

:CHA  : TOTAL VALENCE CHARGE INSIDE UNIT CELL =      26.000000

:SUM  : SUM OF EIGENVALUES =          -2.082899063


        1.ATOM      Pr1                  14 CORE STATES
       CORE-FORCE in mRy/a.u. = |F|      Fx             Fy             Fz
:FCO001:   1.ATOM   1648.072438265367      0.000000000000      0.000000000000   1648.072438265367

:1S 001: 1S               -3066.659596872 Ry
:2S 001: 2S                -492.413588234 Ry
:2PP001: 2P*               -465.512118413 Ry
:2P 001: 2P                -430.114836700 Ry
:3S 001: 3S                -105.510545203 Ry
:3PP001: 3P*                -94.048118145 Ry
:3P 001: 3P                 -87.040420458 Ry
:3DD001: 3D*                -66.966547223 Ry
:3D 001: 3D                 -65.455076033 Ry
:4S 001: 4S                 -20.179059663 Ry
:4PP001: 4P*                -15.884966974 Ry
:4P 001: 4P                 -14.356326108 Ry
:4DD001: 4D*                 -7.286815826 Ry
:4D 001: 4D                  -7.016980091 Ry
:CINT001 Core Integral Atom   1   45.998503

       DENSITY AT NUCLEUS
        JATOM        VALENCE       SEMI-CORE          CORE           TOTAL
:RTO001:   1      647.569600        0.000000   656826.078776   657473.648376
     
       CHARGES OF NEW CHARGE DENSITY
:NTO   : INTERSTITIAL CHARGE =     6.609110
:NPC   : PW Pseudocharge     =    17.372277
:NTO001: CHARGE SPHERE  1    =    55.693947

:NEC01: NUCLEAR AND ELECTRONIC CHARGE    118.00000   117.99700
     
       CHARGES OF OLD CHARGE DENSITY
:OTO   : INTERSTITIAL CHARGE =     6.658490
:OPC   : PW Pseudocharge     =    17.403328
:OTO001: CHARGE SPHERE  1    =    55.670755

:NEC02: NUCLEAR AND ELECTRONIC CHARGE    118.00000   118.00000
     
       CONVERGENCE TEST
:DTO001: DIFFERENCE IN SPHERE  1 =  0.0504036

:DIS  :  CHARGE DISTANCE       ( 0.0504036 for atom    1 spin 1)      0.0504036
 PW Mixed is          360
 
******************************************************
* MULTISECANT MIXING VER9 RELEASE 10.4.0              *
* Slow Mode, cautious                                *
* Fixed density scale                                *
* Regularization       1.000E-04                     *
* Step Trust Radius    0.75000                       *
* Trust Upper Limit    2.000E+00                     *
* Max Number of Memory Steps   12                    *
******************************************************
 
:PWTMP   2.3819E+02  1.9467E+02  3.4012E+02
:PLANE:  PW TOTAL      5.6455 DISTAN   1.05E-02  1.86E-01 %
:CHARG:  CLM/ATOM   1381.9549 DISTAN   7.44E-02  5.38E-03 %
 
Step History
        DMIX         DMIXT        Red     Pred      Trust     Lambda    MagRel    MagAbs     Beta
  1   3.5000E-02   3.5000E-02 -1.00E+00  1.00E+00 -1.00E+01  1.00E+00  3.50E-02  3.50E-02  1.00E+00
  2   2.5000E-02   2.5000E-02 -1.00E+00  1.00E+00 -1.00E+01  1.00E+00  2.50E-02  2.51E-03  1.00E+00
:JACOBIANS    1.996E-02   4.433E-02
  
:NORMS:  1/Froebius, Min, Max, Used   0.3825E-01  0.3825E-01  0.1282E+00  0.3825E-01
:INFO :  Number of Memory Steps    1 Skipping    0
:PREDicted Charge, CTotal, PW Trust    3.041E-03   6.082E-03   3.225E-02
:PREDicted DMix, Beta, BLim   1.0000E-02  3.6893E+00  4.8080E-01

Eigenvalues, unscaled except for SY+YY
   #     SY Real        SY Imag          SS             YY         SY+YY Real      SY+YY Imag
   1   1.282390E-01   0.000000E+00   3.825317E-02   1.000000E+00   1.128239E+00   0.000000E+00
 
:BLIM :  VZERO Control Off
:TRUST:  Step 4.81E-01  Charge 7.50E-02 (e) CTO  2.50E-01 (e) PW  3.50E-01 (e)
:DIRM :  MEMORY  1/12 SCALE   1.000 RED  0.75 PRED  1.00 NEXT  0.32 
:TRAVE:  Charge 2.15E-03 (e) CTO  4.31E-03 (e) PW  2.31E-02 (e)
:DIRP :  |MSR1|= 1.199E-02 |PRATT|= 1.047E-02 ANGLE=  61.0 DEGREES
:DIRQ :  |MSR1|= 6.816E-03 |PRATT|= 7.435E-02 ANGLE=   0.8 DEGREES
:DIRT :  |MSR1|= 1.379E-02 |PRATT|= 7.509E-02 ANGLE=  56.8 DEGREES
:MIX  :   MSR1   REGULARIZATION:  1.00E-04 GREED: 0.02000  Newton 1.00  0.1837                
     
       CHARGES OF MIXED CHARGE DENSITY
:CTO   : INTERSTITIAL CHARGE =     6.654181
:CPC   : PW Pseudocharge     =    17.367329
:CTO001: CHARGE SPHERE  1    =    55.672909

:NEC03: NUCLEAR AND ELECTRONIC CHARGE    118.00000   118.00000

PW CHANGE     H    K    L      Current       Change    Residue
:PTO001:      0    0    0  7.06274159E-02 -1.185E-04 -2.045E-04
:PTO003:      0    2    0  1.72887253E-02 -3.454E-05  2.149E-05
:PTO004:     -1    1    0  8.27486635E-02 -1.864E-04 -1.667E-05
:PTO005:      0    2   -1 -9.50431034E-02  2.163E-04 -2.148E-06
:PTO006:      0    0   -2 -4.92588316E-02  1.121E-04 -2.992E-06
:PTO007:     -1    1   -1 -1.00146265E-01  2.399E-04  2.355E-05
:PTO008:      0    2   -2 -1.47051663E-02  3.972E-05  1.241E-05
:PTO009:     -1    1   -2 -7.44314547E-02  1.896E-04 -1.313E-05
:PTO011:     -1    3    0 -1.15133388E-02  3.062E-05  1.972E-05
:PTO012:     -1    3   -1 -4.83035068E-02  1.205E-04 -3.031E-05
:PTO013:      0    4    0 -8.42757978E-03  2.116E-05 -5.409E-07
:PTO014:      0    2   -3  1.94395522E-02 -4.794E-05 -3.559E-06

:ENE  : ********** TOTAL ENERGY IN Ry =       -36944.33384738

       TOTAL FORCE IN mRy/a.u. = |F|     Fx             Fy             Fz     with/without FOR in case.in2
:FOR001:   1.ATOM          8.507          0.000          0.000         -8.507 partial forces
       TOTAL FORCE WITH RESPECT TO GLOBAL CARTESIAN COORDINATES:
:FCA001:   1.ATOM                         0.000         -8.507          0.000 partial forces
       TOTAL FORCE WITH RESPECT TO THE GLOBAL COORDINATE SYSTEM:
:FGL001:   1.ATOM                 0.000000000    -8.507386445     0.000000000 partial forces
 Flat Integration
 New Mode for Coulomb Integral
 Consistent 3/8+Simpson combinations
 Extension of core to zero
 LDM version in phi
 Fifth-order quadrature in outwin


            ---------
:ITE021: 21. ITERATION
            ---------

:NATO :    1 INDEPENDENT AND    2 TOTAL ATOMS IN UNITCELL
       SUBSTANCE: aU                                                          

       LATTICE                      = CXY 
:POT  : POTENTIAL OPTION EX_LDA EC_LDA VX_LDA VC_LDA
:LAT  : LATTICE CONSTANTS=  5.76241 11.69339 10.09514    1.571    1.571    1.571
:VOL  : UNIT CELL VOLUME =     340.11595
       MODE OF CALCULATION IS       = RELA
       NON-SPINPOLARIZED CALCULATION
:IFFT  : FFT-parameters:   48   96   80 Factor: 2.00


   CONVERGENCE PARAMETER FOR PSEUDOCHARGE: NCON=  9
   MAXIMAL VALUE OF RMT(JATOM)*ABSK(NKK) : RK  =27.59891


:VKCOUL :  VK-COUL convergence: 0.200E-06
       ATOMNUMBER=  1 Pr1        VCOUL-ZERO =  0.41010E+00
:EFG001:                        EFG         =    -9.64784   *10**21  V / m**2
                               V20  TOT/SRF=    -8.35527    -0.05229
                               V22  TOT/SRF=    -2.42679    -0.00796
                               V22M TOT/SRF=     0.00000     0.00000
                               V21  TOT/SRF=     0.00000     0.00000
                               V21M TOT/SRF=     0.00000     0.00000

              2.39713    0.00000    0.00000        2.39713    0.00000    0.00000
              0.00000    7.25070    0.00000        0.00000    7.25070    0.00000
              0.00000    0.00000   -9.64784        0.00000    0.00000   -9.64784

         MAIN DIRECTIONS OF THE EFG   1.0000  0.0000  0.0000
                                      0.0000  1.0000  0.0000
                                      0.0000  0.0000  1.0000
:ANG001:  ANGLE WITH OLD X-AXIS =         0.0

:ETA001:                         ASYMM. ETA =     0.50307


     HELLMANN-FEYNMAN-FORCE IN mRy/a.u. = |F|  Fx       Fy             Fz
:FHF001:   1.ATOM   1653.426692926365      0.000000000000      0.000000000000  -1653.426692926365

:FIT001: LUSE= 13 SIGMA OF V-XC FIT FOR ATOM  1  0.5954831E-04
:FIT001: LUSE= 13 SIGMA OF V-XC FIT FOR ATOM  1  0.5954831E-04
:DEN  : DENSITY INTEGRAL  =        -14186.09090404   (Ry)
       ELS_POTENTIAL_AT Z=0 and Z=0.5:   0.89685   0.89685
       ELS_POTENTIAL_AT Y=0 and Y=0.5:   0.02775   0.02775
:VZERO:v0,v0c,v0x   0.22076   0.89685  -0.67609 v5,v5c,v5x   0.22076   0.89685  -0.67609
:VZERY:v0,v0c,v0x  -0.86527   0.02775  -0.89302 v5,v5c,v5x  -0.86527   0.02775  -0.89302
:VZERX:v0,v0c,v0x  -1.23411  -0.39257  -0.84155 v5,v5c,v5x  -1.23411  -0.39257  -0.84155
:LMAX-WF:   10   Non-Spherical LMAX:   4

          ATOMIC SPHERE DEPENDENT PARAMETERS FOR ATOM  Pr1       
:e__0001: OVERALL ENERGY PARAMETER IS    0.7333
          OVERALL BASIS SET ON ATOM IS LAPW
:E0_0001: E( 0)=    0.7333
             APW+lo
:E0_0001: E( 0)=   -1.7002   E(BOTTOM)=   -2.337   E(TOP)=   -1.064  4  5   210
             LOCAL ORBITAL
:E1_0001: E( 1)=    1.1333
             APW+lo
:E1_0001: E( 1)=   -0.2304   E(BOTTOM)=   -1.190   E(TOP)=    0.729  3  4   213
             LOCAL ORBITAL
:E3_0001: E( 3)=    0.9417   E(BOTTOM)=    0.736   E(TOP)=    1.148  0  1   115
             APW+lo
:E2_0001: E( 2)=    0.7333   E(BOTTOM)=    0.549   E(TOP)= -200.000  2 -1   121
             APW+lo

       K=   0.06250   0.00000   0.06250            1
:RKM  : MATRIX SIZE   323LOs:  40  RKM= 8.47  WEIGHT= 4.00  PGR:    
       EIGENVALUES ARE:
:EIG00001:      -1.7061799   -1.6603541   -0.4866479   -0.3130453   -0.2730971
:EIG00006:      -0.2575144   -0.2406973   -0.2404451    0.7407421    0.8104791
:EIG00011:       0.9202578    0.9253522    0.9266876    0.9323307    0.9428611
:EIG00016:       0.9621940    0.9691142    0.9702397    0.9754462    0.9795973
:EIG00021:       0.9879182    0.9892577    0.9902213    1.0059120    1.0272644
:EIG00026:       1.0502599    1.1484149    1.1516586    1.2208141    1.2566947
:EIG00031:       1.2756032    1.4320749    1.4497332    1.5261891    1.8288821
:EIG00036:       1.8774566    1.9129642    2.0371129    2.1316496    2.2059735
:EIG00041:       2.3656883    2.4441167    2.5752167    2.6033067    2.7563352
:EIG00046:       2.7630387    2.7745250    2.9281157    2.9399914    3.0765768
 
:EIG00051:       3.1483114    3.2480048    3.2495476    3.3909510    3.4485113
:EIG00056:       3.4552358    3.5209384    3.6630201    3.6924985    3.8014753
:EIG00061:       3.8299507    3.9512568    3.9962633    4.0213298    4.0782175
:EIG00066:       4.2382740    4.2408166    4.3276953    4.3536862    4.3933020
:EIG00071:       4.4378252    4.5035150    4.5060823    4.6340704    4.6431086
:EIG00076:       4.6726847    4.7140508    4.7531893    4.7575419    4.8323295
:EIG00081:       4.8389915    4.8724230    4.9219133    4.9555243    4.9728539
:EIG00086:       5.0924976    5.1382723    5.2119280    5.2487691    5.2868343
:EIG00091:       5.3237709    5.3279328    5.3939519    5.4258828    5.4276301
:EIG00096:       5.4586723    5.5353854    5.5373671    5.6101178    5.6518254
 
:EIG00101:       5.7282527    5.8459635    5.8997994    5.9600605    5.9687533
:EIG00106:       6.0609121    6.0711203    6.1247309    6.1801848    6.2576877
:EIG00111:       6.3541804    6.3847938    6.5029115    6.5375218    6.5942795
:EIG00116:       6.6417238    6.7271165    6.7383026    6.7908467    6.8244481
:EIG00121:       6.9104692    6.9453399    6.9946445    7.0323930    7.1103150
:EIG00126:       7.1528339    7.1993537    7.2292538    7.2776856    7.3226062
:EIG00131:       7.3896725    7.4153123    7.4217203    7.5503306    7.6010703
:EIG00136:       7.6092854    7.6252015    7.7426589    7.7684307    7.7798402
:EIG00141:       7.7918231    7.8159225    7.8392459    7.9428154    7.9730277
:EIG00146:       7.9814830    8.0260815    8.1109363    8.1484980    8.1718903
 
:EIG00151:       8.2211193    8.2272454    8.2813815
       ********************************************************

:KPT   :      NUMBER OF K-POINTS:   288
   0.0   0.0 angle (M,z), angle (M,x) deg
 
        SPIN-ORBIT EIGENVALUES:
     K=   0.06250   0.00000   0.06250            1
      MATRIX SIZE=  306   WEIGHT= 4.00
     EIGENVALUES ARE:
          -1.7061808   -1.7061808   -1.6603547   -1.6603547   -0.5356945
          -0.5356945   -0.4115389   -0.4115389   -0.3186613   -0.3186613
          -0.1974001   -0.1974001   -0.1936626   -0.1936626   -0.1746471
          -0.1746471    0.7408375    0.7408375    0.8103673    0.8103673
           0.9176706    0.9176706    0.9224212    0.9224212    0.9240914
           0.9240914    0.9300477    0.9300477    0.9394722    0.9394722
           0.9531115    0.9531115    0.9638797    0.9638797    0.9734052
           0.9734052    0.9810860    0.9810860    0.9827548    0.9827548

           0.9895618    0.9895618    0.9923347    0.9923347    0.9947727
           0.9947727    1.0091237    1.0091237    1.0287825    1.0287825
           1.0505819    1.0505819    1.1439229    1.1439229    1.1560493
           1.1560493    1.2213133    1.2213134    1.2564198    1.2564198
           1.2762098    1.2762098    1.4320479    1.4320479    1.4500176
           1.4500176    1.5263420    1.5263420    1.8292447    1.8292447
           1.8775043    1.8775043    1.9129544    1.9129544    2.0370861
           2.0370861    2.1314238    2.1314238    2.2054292    2.2054292

           2.3658338    2.3658338    2.4435261    2.4435261    2.5745618
           2.5745618    2.6033366    2.6033366    2.7563013    2.7563013
           2.7631914    2.7631914    2.7738487    2.7738487    2.9251144
           2.9251144    2.9430383    2.9430383    3.0767397    3.0767397
           3.1478001    3.1478001    3.2400396    3.2400396    3.2561011
           3.2561011    3.3907321    3.3907321    3.4458481    3.4458481
           3.4583385    3.4583385    3.5195912    3.5195912    3.6634604
           3.6634604    3.6940190    3.6940190    3.8009728    3.8009728

           3.8311963    3.8311963    3.9536765    3.9536765    3.9983128
           3.9983128    4.0213802    4.0213802    4.0783958    4.0783958
           4.2377843    4.2377843    4.2415427    4.2415427    4.3277553
           4.3277553    4.3535594    4.3535594    4.3934312    4.3934312
           4.4382573    4.4382573
       ********************************************************
:GAP (global)   :    0.0    Ry =     0.0   eV (metal)
:GAP (this spin):    0.0    Ry =     0.0   eV (metal)
         Bandranges (emin - emax) and occupancy:
:BAN00018:  18    0.733086    0.881770  1.00000000
:BAN00019:  19    0.791726    0.900116  1.00000000
:BAN00020:  20    0.791726    0.900116  1.00000000
:BAN00021:  21    0.817333    0.931530  1.00000000
:BAN00022:  22    0.817333    0.931530  1.00000000
:BAN00023:  23    0.882324    0.937578  0.99304470
:BAN00024:  24    0.882324    0.937578  0.99304468
:BAN00025:  25    0.899487    0.950839  0.69190757
:BAN00026:  26    0.899487    0.950839  0.69190751
:BAN00027:  27    0.921975    0.954303  0.31504787
:BAN00028:  28    0.921975    0.954303  0.31504768
:BAN00029:  29    0.935678    0.958218  0.00000000
:BAN00030:  30    0.935678    0.958218  0.00000000
:BAN00031:  31    0.942004    0.966629  0.00000000
:BAN00032:  32    0.942004    0.966629  0.00000000
:BAN00033:  33    0.956108    0.975448  0.00000000
        Energy to separate low and high energystates:    0.68309


:NOE  : NUMBER OF ELECTRONS          =   26.000

:FER  : F E R M I - ENERGY(TETRAH.M.)=   0.9352694694
:GMA  : POTENTIAL AND CHARGE CUT-OFF  12.00 Ry**.5

:POS001: ATOM   -1 X,Y,Z = 0.00000 0.89750 0.25000  MULT= 2  ZZ= 59.000  Pr1       

       LMMAX 16
       LM=   0 0  1 0  2 0  2 2  3 0  3 2  4 0  4 2  4 4  5 0  5 2  5 4  6 0  6 2  6 4  6 6

:CHA001: TOTAL VALENCE CHARGE INSIDE SPHERE   1 =   9.6715    (RMT=  2.3000 )
:PCS001: PARTIAL CHARGES SPHERE =  1 S,P,D,F,PX,PY,PZ,D-Z2,D-X2Y2,D-XY,D-XZ,D-YZ 
:QTL001: 1.9394 4.9801 0.7271 2.0236 1.6584 1.6554 1.6663 0.1403 0.1297 0.1506 0.1488 0.1577
        Q-s-low E-s-low   Q-p-low E-p-low   Q-d-low E-d-low   Q-f-low E-f-low
:EPL001:  1.8686 -1.6577    4.9008 -0.3508    0.0098 -0.3641    0.0030 -0.3774
        Q-s-hi  E-s-hi    Q-p-hi  E-p-hi    Q-d-hi  E-d-hi    Q-f-hi  E-f-hi 
:EPH001:  0.0708  0.8455    0.0793  0.8741    0.7173  0.8604    2.0206  0.9099

                      VXX         VYY         VZZ       UP TO R
:VZZ001:             2.41607     7.06503    -9.48111       2.300

:CHA  : TOTAL VALENCE CHARGE INSIDE UNIT CELL =      26.000000

:SUM  : SUM OF EIGENVALUES =          -2.064451148


        1.ATOM      Pr1                  14 CORE STATES
       CORE-FORCE in mRy/a.u. = |F|      Fx             Fy             Fz
:FCO001:   1.ATOM   1645.240199756523      0.000000000000      0.000000000000   1645.240199756523

:1S 001: 1S               -3066.654172958 Ry
:2S 001: 2S                -492.408129055 Ry
:2PP001: 2P*               -465.506666694 Ry
:2P 001: 2P                -430.109382336 Ry
:3S 001: 3S                -105.505189178 Ry
:3PP001: 3P*                -94.042750802 Ry
:3P 001: 3P                 -87.035075929 Ry
:3DD001: 3D*                -66.961162787 Ry
:3D 001: 3D                 -65.449696994 Ry
:4S 001: 4S                 -20.174982823 Ry
:4PP001: 4P*                -15.880971745 Ry
:4P 001: 4P                 -14.352456875 Ry
:4DD001: 4D*                 -7.283169860 Ry
:4D 001: 4D                  -7.013377108 Ry
:CINT001 Core Integral Atom   1   45.998500

       DENSITY AT NUCLEUS
        JATOM        VALENCE       SEMI-CORE          CORE           TOTAL
:RTO001:   1      647.661224        0.000000   656825.818846   657473.480070
     
       CHARGES OF NEW CHARGE DENSITY
:NTO   : INTERSTITIAL CHARGE =     6.656912
:NPC   : PW Pseudocharge     =    17.390877
:NTO001: CHARGE SPHERE  1    =    55.670043

:NEC01: NUCLEAR AND ELECTRONIC CHARGE    118.00000   117.99700
     
       CHARGES OF OLD CHARGE DENSITY
:OTO   : INTERSTITIAL CHARGE =     6.654181
:OPC   : PW Pseudocharge     =    17.367329
:OTO001: CHARGE SPHERE  1    =    55.672909

:NEC02: NUCLEAR AND ELECTRONIC CHARGE    118.00000   118.00000
     
       CONVERGENCE TEST
:DTO001: DIFFERENCE IN SPHERE  1 =  0.0065983

:DIS  :  CHARGE DISTANCE       ( 0.0065983 for atom    1 spin 1)      0.0065983
 PW Mixed is          360
 
******************************************************
* MULTISECANT MIXING VER9 RELEASE 10.4.0              *
* Slow Mode, cautious                                *
* Fixed density scale                                *
* Regularization       1.000E-04                     *
* Step Trust Radius    0.75000                       *
* Trust Upper Limit    2.000E+00                     *
* Max Number of Memory Steps   12                    *
******************************************************
 
:PWTMP   2.3819E+02  1.9467E+02  3.4012E+02
:PLANE:  PW TOTAL      5.6338 DISTAN   1.14E-02  2.02E-01 %
:CHARG:  CLM/ATOM   1381.9552 DISTAN   2.05E-02  1.49E-03 %
 
Step History
        DMIX         DMIXT        Red     Pred      Trust     Lambda    MagRel    MagAbs     Beta
  1   3.5000E-02   3.5000E-02 -1.00E+00  1.00E+00 -1.00E+01  1.00E+00  3.50E-02  3.50E-02  1.00E+00
  2   2.5000E-02   2.5000E-02  7.47E-01  1.00E+00 -1.00E+01  1.00E+00  2.50E-02  2.51E-03  1.00E+00
  3   2.0000E-02   2.0000E-02 -1.00E+00  3.19E-01  4.81E-01  1.00E+00  1.84E-01  1.38E-02  1.00E+00
:JACOBIANS    2.954E-02   6.725E-02
  
:NORMS:  1/Froebius, Min, Max, Used   0.1950E+00  0.1950E+00  0.5136E+00  0.1957E+00
:INFO :  Number of Memory Steps    2 Skipping    0
:INFO :  SLambda=    0.5030804828  Max    0.5030804828
:PREDicted Charge, CTotal, PW Trust    2.160E-03   4.321E-03   2.311E-02
:PREDicted DMix, Beta, BLim   1.1159E-03  1.0076E+00  3.5023E-01

Eigenvalues, unscaled except for SY+YY
   #     SY Real        SY Imag          SS             YY         SY+YY Real      SY+YY Imag
   1   1.781152E-06   0.000000E+00   7.606153E-02   1.999997E+00   4.218273E-06   0.000000E+00
   2   2.574154E-01   0.000000E+00   1.578079E-06   3.344623E-06   2.129497E+00   0.000000E+00
 
:INFO :  Singular value  2.129E+00 Weight  1.000E+00 Projection  2.321E-07
:INFO :  Singular value  4.218E-06 Weight  4.446E-04 Projection -4.883E-03
:RANK :  ACTIVE   1.00/2  =  50.02 % ; YY RANK   1.00/2  =  50.01 %
 
:BLIM :  VZERO Control Off
:TRUST:  Step 6.01E-01  Charge 7.50E-02 (e) CTO  2.50E-01 (e) PW  3.50E-01 (e)
:DIRM :  MEMORY  2/12 SCALE   1.000 RED  0.31 PRED  0.32 NEXT  1.00 
:TRAVE:  Charge 1.10E-03 (e) CTO  2.19E-03 (e) PW  1.17E-02 (e)
:DIRP :  |MSR1|= 1.508E-04 |PRATT|= 1.138E-02 ANGLE=   0.1 DEGREES
:DIRQ :  |MSR1|= 2.738E-04 |PRATT|= 2.054E-02 ANGLE=   0.1 DEGREES
:DIRT :  |MSR1|= 3.126E-04 |PRATT|= 2.348E-02 ANGLE=   0.2 DEGREES
:MIX  :   MSD1   REGULARIZATION:  2.00E-04 GREED: 0.01306  Newton 1.00  0.0133                
     
       CHARGES OF MIXED CHARGE DENSITY
:CTO   : INTERSTITIAL CHARGE =     6.654257
:CPC   : PW Pseudocharge     =    17.367745
:CTO001: CHARGE SPHERE  1    =    55.672871

:NEC03: NUCLEAR AND ELECTRONIC CHARGE    118.00000   118.00000

PW CHANGE     H    K    L      Current       Change    Residue
:PTO001:      0    0    0  7.06288619E-02  1.446E-06  1.091E-04
:PTO003:      0    2    0  1.72891582E-02  4.330E-07  3.269E-05
:PTO004:     -1    1    0  8.27508495E-02  2.186E-06  1.651E-04
:PTO005:      0    2   -1 -9.50458883E-02 -2.785E-06 -2.102E-04
:PTO006:      0    0   -2 -4.92602957E-02 -1.464E-06 -1.105E-04
:PTO007:     -1    1   -1 -1.00148913E-01 -2.648E-06 -2.001E-04
:PTO008:      0    2   -2 -1.47055673E-02 -4.010E-07 -3.031E-05
:PTO009:     -1    1   -2 -7.44338579E-02 -2.403E-06 -1.814E-04
:PTO011:     -1    3    0 -1.15136046E-02 -2.657E-07 -2.010E-05
:PTO012:     -1    3   -1 -4.83052692E-02 -1.762E-06 -1.329E-04
:PTO013:      0    4    0 -8.42782810E-03 -2.483E-07 -1.875E-05
:PTO014:      0    2   -3  1.94402286E-02  6.764E-07  5.102E-05

:ENE  : ********** TOTAL ENERGY IN Ry =       -36944.33367973

       TOTAL FORCE IN mRy/a.u. = |F|     Fx             Fy             Fz     with/without FOR in case.in2
:FOR001:   1.ATOM          8.186          0.000          0.000         -8.186 partial forces
       TOTAL FORCE WITH RESPECT TO GLOBAL CARTESIAN COORDINATES:
:FCA001:   1.ATOM                         0.000         -8.186          0.000 partial forces
       TOTAL FORCE WITH RESPECT TO THE GLOBAL COORDINATE SYSTEM:
:FGL001:   1.ATOM                 0.000000000    -8.186493170     0.000000000 partial forces
 Flat Integration
 New Mode for Coulomb Integral
 Consistent 3/8+Simpson combinations
 Extension of core to zero
 LDM version in phi
 Fifth-order quadrature in outwin


            ---------
:ITE022: 22. ITERATION
            ---------

:NATO :    1 INDEPENDENT AND    2 TOTAL ATOMS IN UNITCELL
       SUBSTANCE: aU                                                          

       LATTICE                      = CXY 
:POT  : POTENTIAL OPTION EX_LDA EC_LDA VX_LDA VC_LDA
:LAT  : LATTICE CONSTANTS=  5.76241 11.69339 10.09514    1.571    1.571    1.571
:VOL  : UNIT CELL VOLUME =     340.11595
       MODE OF CALCULATION IS       = RELA
       NON-SPINPOLARIZED CALCULATION
:IFFT  : FFT-parameters:   48   96   80 Factor: 2.00


   CONVERGENCE PARAMETER FOR PSEUDOCHARGE: NCON=  9
   MAXIMAL VALUE OF RMT(JATOM)*ABSK(NKK) : RK  =27.59891


:VKCOUL :  VK-COUL convergence: 0.200E-06
       ATOMNUMBER=  1 Pr1        VCOUL-ZERO =  0.41011E+00
:EFG001:                        EFG         =    -9.64647   *10**21  V / m**2
                               V20  TOT/SRF=    -8.35409    -0.05229
                               V22  TOT/SRF=    -2.42544    -0.00795
                               V22M TOT/SRF=     0.00000     0.00000
                               V21  TOT/SRF=     0.00000     0.00000
                               V21M TOT/SRF=     0.00000     0.00000

              2.39780    0.00000    0.00000        2.39780    0.00000    0.00000
              0.00000    7.24867    0.00000        0.00000    7.24867    0.00000
              0.00000    0.00000   -9.64647        0.00000    0.00000   -9.64647

         MAIN DIRECTIONS OF THE EFG   1.0000  0.0000  0.0000
                                      0.0000  1.0000  0.0000
                                      0.0000  0.0000  1.0000
:ANG001:  ANGLE WITH OLD X-AXIS =         0.0

:ETA001:                         ASYMM. ETA =     0.50287


     HELLMANN-FEYNMAN-FORCE IN mRy/a.u. = |F|  Fx       Fy             Fz
:FHF001:   1.ATOM   1653.283863019892      0.000000000000      0.000000000000  -1653.283863019892

:FIT001: LUSE= 13 SIGMA OF V-XC FIT FOR ATOM  1  0.5952100E-04
:FIT001: LUSE= 13 SIGMA OF V-XC FIT FOR ATOM  1  0.5952100E-04
:DEN  : DENSITY INTEGRAL  =        -14186.09208973   (Ry)
       ELS_POTENTIAL_AT Z=0 and Z=0.5:   0.89687   0.89687
       ELS_POTENTIAL_AT Y=0 and Y=0.5:   0.02775   0.02775
:VZERO:v0,v0c,v0x   0.22077   0.89687  -0.67609 v5,v5c,v5x   0.22077   0.89687  -0.67609
:VZERY:v0,v0c,v0x  -0.86528   0.02775  -0.89303 v5,v5c,v5x  -0.86528   0.02775  -0.89303
:VZERX:v0,v0c,v0x  -1.23413  -0.39258  -0.84155 v5,v5c,v5x  -1.23413  -0.39258  -0.84155
:LMAX-WF:   10   Non-Spherical LMAX:   4

          ATOMIC SPHERE DEPENDENT PARAMETERS FOR ATOM  Pr1       
:e__0001: OVERALL ENERGY PARAMETER IS    0.7346
          OVERALL BASIS SET ON ATOM IS LAPW
:E0_0001: E( 0)=    0.7346
             APW+lo
:E0_0001: E( 0)=   -1.7002   E(BOTTOM)=   -2.337   E(TOP)=   -1.064  4  5   213
             LOCAL ORBITAL
:E1_0001: E( 1)=    1.1346
             APW+lo
:E1_0001: E( 1)=   -0.2304   E(BOTTOM)=   -1.190   E(TOP)=    0.729  3  4   219
             LOCAL ORBITAL
:E3_0001: E( 3)=    0.9417   E(BOTTOM)=    0.736   E(TOP)=    1.148  0  1   110
             APW+lo
:E2_0001: E( 2)=    0.7346   E(BOTTOM)=    0.549   E(TOP)= -200.000  2 -1   122
             APW+lo

       K=   0.06250   0.00000   0.06250            1
:RKM  : MATRIX SIZE   323LOs:  40  RKM= 8.47  WEIGHT= 4.00  PGR:    
       EIGENVALUES ARE:
:EIG00001:      -1.7061719   -1.6603458   -0.4866419   -0.3130383   -0.2730900
:EIG00006:      -0.2575046   -0.2406912   -0.2404352    0.7407524    0.8104882
:EIG00011:       0.9202713    0.9253678    0.9266978    0.9323453    0.9428713
:EIG00016:       0.9622102    0.9691298    0.9702558    0.9754620    0.9796089
:EIG00021:       0.9879341    0.9892733    0.9902366    1.0059234    1.0272769
:EIG00026:       1.0502708    1.1484231    1.1516664    1.2208235    1.2567040
:EIG00031:       1.2756120    1.4320833    1.4497408    1.5261945    1.8288936
:EIG00036:       1.8774679    1.9129737    2.0371176    2.1316604    2.2059815
:EIG00041:       2.3656962    2.4441238    2.5752219    2.6033113    2.7563373
:EIG00046:       2.7630324    2.7745300    2.9281182    2.9399916    3.0765802
 
:EIG00051:       3.1483061    3.2480008    3.2495398    3.3909328    3.4485041
:EIG00056:       3.4552310    3.5209401    3.6629800    3.6924970    3.8014547
:EIG00061:       3.8299498    3.9512477    3.9962468    4.0213187    4.0781856
:EIG00066:       4.2382607    4.2407894    4.3276855    4.3536839    4.3932857
:EIG00071:       4.4378131    4.5035105    4.5060691    4.6340685    4.6431010
:EIG00076:       4.6726796    4.7140345    4.7531814    4.7575227    4.8323300
:EIG00081:       4.8389785    4.8724174    4.9219018    4.9555105    4.9728457
:EIG00086:       5.0924963    5.1382669    5.2119170    5.2487329    5.2868252
:EIG00091:       5.3237626    5.3279196    5.3938939    5.4258724    5.4275772
:EIG00096:       5.4586736    5.5353807    5.5373535    5.6100867    5.6518113
 
:EIG00101:       5.7282281    5.8459368    5.8997845    5.9600450    5.9687403
:EIG00106:       6.0608896    6.0711039    6.1247213    6.1801748    6.2576620
:EIG00111:       6.3541531    6.3847686    6.5028700    6.5375059    6.5942364
:EIG00116:       6.6416538    6.7270857    6.7382353    6.7907914    6.8243758
:EIG00121:       6.9104143    6.9452942    6.9945814    7.0323580    7.1102895
:EIG00126:       7.1527990    7.1993235    7.2292234    7.2776393    7.3225766
:EIG00131:       7.3896403    7.4152578    7.4216997    7.5502896    7.6010233
:EIG00136:       7.6092350    7.6251699    7.7425931    7.7683954    7.7798176
:EIG00141:       7.7917685    7.8158751    7.8392251    7.9427893    7.9729760
:EIG00146:       7.9813808    8.0260085    8.1108948    8.1484533    8.1718576
 
:EIG00151:       8.2210513    8.2272161    8.2812337
       ********************************************************

:KPT   :      NUMBER OF K-POINTS:   288
   0.0   0.0 angle (M,z), angle (M,x) deg
 
        SPIN-ORBIT EIGENVALUES:
     K=   0.06250   0.00000   0.06250            1
      MATRIX SIZE=  306   WEIGHT= 4.00
     EIGENVALUES ARE:
          -1.7061727   -1.7061727   -1.6603465   -1.6603465   -0.5356882
          -0.5356882   -0.4115314   -0.4115314   -0.3186541   -0.3186541
          -0.1973913   -0.1973913   -0.1936542   -0.1936542   -0.1746400
          -0.1746400    0.7408478    0.7408478    0.8103764    0.8103764
           0.9176844    0.9176844    0.9224362    0.9224362    0.9241024
           0.9241024    0.9300622    0.9300622    0.9394830    0.9394830
           0.9531275    0.9531275    0.9638943    0.9638943    0.9734208
           0.9734208    0.9811017    0.9811017    0.9827677    0.9827677

           0.9895772    0.9895772    0.9923490    0.9923490    0.9947885
           0.9947885    1.0091354    1.0091354    1.0287952    1.0287952
           1.0505929    1.0505929    1.1439307    1.1439307    1.1560575
           1.1560575    1.2213228    1.2213228    1.2564291    1.2564291
           1.2762186    1.2762186    1.4320562    1.4320562    1.4500253
           1.4500253    1.5263474    1.5263474    1.8292562    1.8292562
           1.8775155    1.8775155    1.9129639    1.9129639    2.0370908
           2.0370908    2.1314345    2.1314345    2.2054372    2.2054372

           2.3658416    2.3658416    2.4435332    2.4435332    2.5745669
           2.5745669    2.6033411    2.6033411    2.7563033    2.7563033
           2.7631853    2.7631853    2.7738535    2.7738535    2.9251166
           2.9251166    2.9430386    2.9430386    3.0767431    3.0767431
           3.1477948    3.1477948    3.2400329    3.2400329    3.2560957
           3.2560957    3.3907138    3.3907138    3.4458415    3.4458415
           3.4583335    3.4583335    3.5195924    3.5195924    3.6634206
           3.6634206    3.6940175    3.6940175    3.8009523    3.8009523

           3.8311945    3.8311945    3.9536685    3.9536685    3.9982958
           3.9982958    4.0213691    4.0213691    4.0783639    4.0783639
           4.2377685    4.2377685    4.2415181    4.2415181    4.3277455
           4.3277455    4.3535570    4.3535570    4.3934149    4.3934149
           4.4382452    4.4382452
       ********************************************************
:GAP (global)   :    0.0    Ry =     0.0   eV (metal)
:GAP (this spin):    0.0    Ry =     0.0   eV (metal)
         Bandranges (emin - emax) and occupancy:
:BAN00018:  18    0.733096    0.881780  1.00000000
:BAN00019:  19    0.791736    0.900127  1.00000000
:BAN00020:  20    0.791736    0.900127  1.00000000
:BAN00021:  21    0.817343    0.931542  1.00000000
:BAN00022:  22    0.817343    0.931542  1.00000000
:BAN00023:  23    0.882334    0.937593  0.99304350
:BAN00024:  24    0.882334    0.937593  0.99304349
:BAN00025:  25    0.899500    0.950853  0.69191922
:BAN00026:  26    0.899500    0.950853  0.69191914
:BAN00027:  27    0.921988    0.954318  0.31503741
:BAN00028:  28    0.921988    0.954318  0.31503724
:BAN00029:  29    0.935691    0.958234  0.00000000
:BAN00030:  30    0.935691    0.958234  0.00000000
:BAN00031:  31    0.942017    0.966644  0.00000000
:BAN00032:  32    0.942017    0.966644  0.00000000
:BAN00033:  33    0.956123    0.975462  0.00000000
        Energy to separate low and high energystates:    0.68310


:NOE  : NUMBER OF ELECTRONS          =   26.000

:FER  : F E R M I - ENERGY(TETRAH.M.)=   0.9352830874
:GMA  : POTENTIAL AND CHARGE CUT-OFF  12.00 Ry**.5

:POS001: ATOM   -1 X,Y,Z = 0.00000 0.89750 0.25000  MULT= 2  ZZ= 59.000  Pr1       

       LMMAX 16
       LM=   0 0  1 0  2 0  2 2  3 0  3 2  4 0  4 2  4 4  5 0  5 2  5 4  6 0  6 2  6 4  6 6

:CHA001: TOTAL VALENCE CHARGE INSIDE SPHERE   1 =   9.6715    (RMT=  2.3000 )
:PCS001: PARTIAL CHARGES SPHERE =  1 S,P,D,F,PX,PY,PZ,D-Z2,D-X2Y2,D-XY,D-XZ,D-YZ 
:QTL001: 1.9394 4.9801 0.7272 2.0235 1.6584 1.6554 1.6663 0.1403 0.1298 0.1506 0.1488 0.1577
        Q-s-low E-s-low   Q-p-low E-p-low   Q-d-low E-d-low   Q-f-low E-f-low
:EPL001:  1.8686 -1.6577    4.9008 -0.3508    0.0098 -0.3641    0.0030 -0.3774
        Q-s-hi  E-s-hi    Q-p-hi  E-p-hi    Q-d-hi  E-d-hi    Q-f-hi  E-f-hi 
:EPH001:  0.0708  0.8456    0.0793  0.8741    0.7173  0.8604    2.0205  0.9099

                      VXX         VYY         VZZ       UP TO R
:VZZ001:             2.41370     7.07059    -9.48429       2.300

:CHA  : TOTAL VALENCE CHARGE INSIDE UNIT CELL =      26.000000

:SUM  : SUM OF EIGENVALUES =          -2.064216118


        1.ATOM      Pr1                  14 CORE STATES
       CORE-FORCE in mRy/a.u. = |F|      Fx             Fy             Fz
:FCO001:   1.ATOM   1645.068960645448      0.000000000000      0.000000000000   1645.068960645448

:1S 001: 1S               -3066.654186606 Ry
:2S 001: 2S                -492.408133154 Ry
:2PP001: 2P*               -465.506672899 Ry
:2P 001: 2P                -430.109387753 Ry
:3S 001: 3S                -105.505176243 Ry
:3PP001: 3P*                -94.042738755 Ry
:3P 001: 3P                 -87.035063076 Ry
:3DD001: 3D*                -66.961152224 Ry
:3D 001: 3D                 -65.449686126 Ry
:4S 001: 4S                 -20.174963114 Ry
:4PP001: 4P*                -15.880952391 Ry
:4P 001: 4P                 -14.352437792 Ry
:4DD001: 4D*                 -7.283151738 Ry
:4D 001: 4D                  -7.013359107 Ry
:CINT001 Core Integral Atom   1   45.998500

       DENSITY AT NUCLEUS
        JATOM        VALENCE       SEMI-CORE          CORE           TOTAL
:RTO001:   1      647.661060        0.000000   656825.821775   657473.482835
     
       CHARGES OF NEW CHARGE DENSITY
:NTO   : INTERSTITIAL CHARGE =     6.656992
:NPC   : PW Pseudocharge     =    17.390925
:NTO001: CHARGE SPHERE  1    =    55.670003

:NEC01: NUCLEAR AND ELECTRONIC CHARGE    118.00000   117.99700
     
       CHARGES OF OLD CHARGE DENSITY
:OTO   : INTERSTITIAL CHARGE =     6.654257
:OPC   : PW Pseudocharge     =    17.367745
:OTO001: CHARGE SPHERE  1    =    55.672871

:NEC02: NUCLEAR AND ELECTRONIC CHARGE    118.00000   118.00000
     
       CONVERGENCE TEST
:DTO001: DIFFERENCE IN SPHERE  1 =  0.0064671

:DIS  :  CHARGE DISTANCE       ( 0.0064671 for atom    1 spin 1)      0.0064671
 PW Mixed is          360
 
******************************************************
* MULTISECANT MIXING VER9 RELEASE 10.4.0              *
* Slow Mode, cautious                                *
* Fixed density scale                                *
* Regularization       1.000E-04                     *
* Step Trust Radius    0.75000                       *
* Trust Upper Limit    2.000E+00                     *
* Max Number of Memory Steps   12                    *
******************************************************
 
:PWTMP   2.3819E+02  1.9467E+02  3.4012E+02
:PLANE:  PW TOTAL      5.6339 DISTAN   1.12E-02  1.99E-01 %
:CHARG:  CLM/ATOM   1381.9552 DISTAN   2.02E-02  1.46E-03 %
 
Step History
        DMIX         DMIXT        Red     Pred      Trust     Lambda    MagRel    MagAbs     Beta
  1   3.5000E-02   3.5000E-02 -1.00E+00  1.00E+00 -1.00E+01  1.00E+00  3.50E-02  3.50E-02  1.00E+00
  2   2.5000E-02   2.5000E-02  7.47E-01  1.00E+00 -1.00E+01  1.00E+00  2.50E-02  2.51E-03  1.00E+00
  3   2.0000E-02   2.0000E-02  3.13E-01  3.19E-01  4.81E-01  5.03E-01  1.84E-01  1.38E-02  1.00E+00
  4   1.3058E-02   1.3058E-02 -1.00E+00  1.00E+00  6.01E-01  1.00E+00  1.33E-02  3.13E-04  1.00E+00
:JACOBIANS    1.145E-01   3.313E-01
  
:NORMS:  1/Froebius, Min, Max, Used   0.4272E+00  0.2986E+00  0.6742E+00  0.4686E+00
:INFO :  Number of Memory Steps    3 Skipping    0
:INFO :  SLambda=    1.2456465885  Max    1.2456465885
:PREDicted Charge, CTotal, PW Trust    2.317E-03   4.635E-03   1.789E-02
:PREDicted DMix, Beta, BLim   6.6434E-01  2.8261E+01  7.3930E-01

Eigenvalues, unscaled except for SY+YY
   #     SY Real        SY Imag          SS             YY         SY+YY Real      SY+YY Imag
   1   1.850873E-08   0.000000E+00   4.766131E-01   2.170693E+00   4.646059E-07   0.000000E+00
   2   2.559333E-01   0.000000E+00   7.081030E-02   8.293064E-01   2.583376E+00   0.000000E+00
   3   5.950966E-01   0.000000E+00   9.451357E-10   4.165260E-07   1.476706E+00   0.000000E+00
 
:INFO :  Singular value  2.584E+00 Weight  1.000E+00 Projection -7.163E-03
:INFO :  Singular value  1.477E+00 Weight  1.000E+00 Projection -2.371E-02
:INFO :  Singular value  4.646E-07 Weight  4.581E-06 Projection  5.126E-05
:RANK :  ACTIVE   2.00/3  =  66.67 % ; YY RANK   2.00/3  =  66.67 %
 
:BLIM :  VZERO Control Off
:TRUST:  Step 6.40E-01  Charge 7.50E-02 (e) CTO  2.50E-01 (e) PW  3.50E-01 (e)
:DTRUS:  Lambda    5.294E-02 Increment    3.638E-12 Iterations   100 DMIX    2.822E-02
:INFOA:  Angle SubSpace to MSR1      0.21
:DIRM :  MEMORY  3/12 SCALE   1.000 RED  0.98 PRED  1.00 NEXT  0.44 
:INFO :  Limited by Atoms F by Step T

:TRAVE:  Charge 1.52E-03 (e) CTO  3.04E-03 (e) PW  1.34E-02 (e)
:DIRP :  |MSR1|= 8.017E-03 |PRATT|= 1.124E-02 ANGLE=   1.3 DEGREES
:DIRQ :  |MSR1|= 1.241E-02 |PRATT|= 2.017E-02 ANGLE=   2.1 DEGREES
:DIRT :  |MSR1|= 1.478E-02 |PRATT|= 2.309E-02 ANGLE=   4.2 DEGREES
:MIX  :   MSE1   REGULARIZATION:  2.17E-04 GREED: 0.03264  LMStep 0.86  0.6401 Step           
     
       CHARGES OF MIXED CHARGE DENSITY
:CTO   : INTERSTITIAL CHARGE =     6.658146
:CPC   : PW Pseudocharge     =    17.390142
:CTO001: CHARGE SPHERE  1    =    55.670927

:NEC03: NUCLEAR AND ELECTRONIC CHARGE    118.00000   118.00000

PW CHANGE     H    K    L      Current       Change    Residue
:PTO001:      0    0    0  7.07061446E-02  7.728E-05  1.081E-04
:PTO003:      0    2    0  1.73125310E-02  2.337E-05  3.241E-05
:PTO004:     -1    1    0  8.28688468E-02  1.180E-04  1.632E-04
:PTO005:      0    2   -1 -9.51936268E-02 -1.477E-04 -2.073E-04
:PTO006:      0    0   -2 -4.93378146E-02 -7.752E-05 -1.090E-04
:PTO007:     -1    1   -1 -1.00292614E-01 -1.437E-04 -1.975E-04
:PTO008:      0    2   -2 -1.47275628E-02 -2.200E-05 -2.991E-05
:PTO009:     -1    1   -2 -7.45615543E-02 -1.277E-04 -1.789E-04
:PTO011:     -1    3    0 -1.15284012E-02 -1.480E-05 -1.976E-05
:PTO012:     -1    3   -1 -4.83974155E-02 -9.215E-05 -1.311E-04
:PTO013:      0    4    0 -8.44111018E-03 -1.328E-05 -1.846E-05
:PTO014:      0    2   -3  1.94756281E-02  3.540E-05  5.028E-05

:ENE  : ********** TOTAL ENERGY IN Ry =       -36944.33368196

       TOTAL FORCE IN mRy/a.u. = |F|     Fx             Fy             Fz     with/without FOR in case.in2
:FOR001:   1.ATOM          8.215          0.000          0.000         -8.215 partial forces
       TOTAL FORCE WITH RESPECT TO GLOBAL CARTESIAN COORDINATES:
:FCA001:   1.ATOM                         0.000         -8.215          0.000 partial forces
       TOTAL FORCE WITH RESPECT TO THE GLOBAL COORDINATE SYSTEM:
:FGL001:   1.ATOM                 0.000000000    -8.214902374     0.000000000 partial forces
 Flat Integration
 New Mode for Coulomb Integral
 Consistent 3/8+Simpson combinations
 Extension of core to zero
 LDM version in phi
 Fifth-order quadrature in outwin


            ---------
:ITE023: 23. ITERATION
            ---------

:NATO :    1 INDEPENDENT AND    2 TOTAL ATOMS IN UNITCELL
       SUBSTANCE: aU                                                          

       LATTICE                      = CXY 
:POT  : POTENTIAL OPTION EX_LDA EC_LDA VX_LDA VC_LDA
:LAT  : LATTICE CONSTANTS=  5.76241 11.69339 10.09514    1.571    1.571    1.571
:VOL  : UNIT CELL VOLUME =     340.11595
       MODE OF CALCULATION IS       = RELA
       NON-SPINPOLARIZED CALCULATION
:IFFT  : FFT-parameters:   48   96   80 Factor: 2.00


   CONVERGENCE PARAMETER FOR PSEUDOCHARGE: NCON=  9
   MAXIMAL VALUE OF RMT(JATOM)*ABSK(NKK) : RK  =27.59891


:VKCOUL :  VK-COUL convergence: 0.198E-06
       ATOMNUMBER=  1 Pr1        VCOUL-ZERO =  0.41049E+00
:EFG001:                        EFG         =    -9.59000   *10**21  V / m**2
                               V20  TOT/SRF=    -8.30518    -0.05221
                               V22  TOT/SRF=    -2.36963    -0.00756
                               V22M TOT/SRF=     0.00000     0.00000
                               V21  TOT/SRF=     0.00000     0.00000
                               V21M TOT/SRF=     0.00000     0.00000

              2.42537    0.00000    0.00000        2.42537    0.00000    0.00000
              0.00000    7.16463    0.00000        0.00000    7.16463    0.00000
              0.00000    0.00000   -9.59000        0.00000    0.00000   -9.59000

         MAIN DIRECTIONS OF THE EFG   1.0000  0.0000  0.0000
                                      0.0000  1.0000  0.0000
                                      0.0000  0.0000  1.0000
:ANG001:  ANGLE WITH OLD X-AXIS =         0.0

:ETA001:                         ASYMM. ETA =     0.49419


     HELLMANN-FEYNMAN-FORCE IN mRy/a.u. = |F|  Fx       Fy             Fz
:FHF001:   1.ATOM   1646.674898342663      0.000000000000      0.000000000000  -1646.674898342663

:FIT001: LUSE= 13 SIGMA OF V-XC FIT FOR ATOM  1  0.5829516E-04
:FIT001: LUSE= 13 SIGMA OF V-XC FIT FOR ATOM  1  0.5829516E-04
:DEN  : DENSITY INTEGRAL  =        -14186.11001905   (Ry)
       ELS_POTENTIAL_AT Z=0 and Z=0.5:   0.89748   0.89748
       ELS_POTENTIAL_AT Y=0 and Y=0.5:   0.02781   0.02781
:VZERO:v0,v0c,v0x   0.22127   0.89748  -0.67621 v5,v5c,v5x   0.22127   0.89748  -0.67621
:VZERY:v0,v0c,v0x  -0.86548   0.02781  -0.89329 v5,v5c,v5x  -0.86548   0.02781  -0.89329
:VZERX:v0,v0c,v0x  -1.23479  -0.39301  -0.84179 v5,v5c,v5x  -1.23479  -0.39301  -0.84179
:LMAX-WF:   10   Non-Spherical LMAX:   4

          ATOMIC SPHERE DEPENDENT PARAMETERS FOR ATOM  Pr1       
:e__0001: OVERALL ENERGY PARAMETER IS    0.7351
          OVERALL BASIS SET ON ATOM IS LAPW
:E0_0001: E( 0)=    0.7351
             APW+lo
:E0_0001: E( 0)=   -1.6999   E(BOTTOM)=   -2.336   E(TOP)=   -1.063  4  5   213
             LOCAL ORBITAL
:E1_0001: E( 1)=    1.1351
             APW+lo
:E1_0001: E( 1)=   -0.2301   E(BOTTOM)=   -1.190   E(TOP)=    0.729  3  4   219
             LOCAL ORBITAL
:E3_0001: E( 3)=    0.9422   E(BOTTOM)=    0.736   E(TOP)=    1.148  0  1   117
             APW+lo
:E2_0001: E( 2)=    0.7351   E(BOTTOM)=    0.549   E(TOP)= -200.000  2 -1   122
             APW+lo

       K=   0.06250   0.00000   0.06250            1
:RKM  : MATRIX SIZE   323LOs:  40  RKM= 8.47  WEIGHT= 4.00  PGR:    
       EIGENVALUES ARE:
:EIG00001:      -1.7058707   -1.6600437   -0.4863845   -0.3127489   -0.2728039
:EIG00006:      -0.2571187   -0.2404554   -0.2400449    0.7412706    0.8109458
:EIG00011:       0.9207548    0.9259182    0.9270152    0.9328544    0.9431995
:EIG00016:       0.9627590    0.9696487    0.9707949    0.9759894    0.9799678
:EIG00021:       0.9884644    0.9898053    0.9907623    1.0062582    1.0277435
:EIG00026:       1.0507194    1.1487988    1.1520505    1.2212766    1.2571549
:EIG00031:       1.2760360    1.4325071    1.4501408    1.5265173    1.8294539
:EIG00036:       1.8780244    1.9134810    2.0375357    2.1322357    2.2064727
:EIG00041:       2.3661481    2.4446178    2.5757426    2.6037743    2.7568386
:EIG00046:       2.7634906    2.7750244    2.9285935    2.9404770    3.0770976
 
:EIG00051:       3.1487782    3.2484607    3.2499308    3.3913491    3.4489382
:EIG00056:       3.4556805    3.5214150    3.6633881    3.6929945    3.8019434
:EIG00061:       3.8304111    3.9516931    3.9966698    4.0217486    4.0786298
:EIG00066:       4.2386945    4.2412299    4.3281723    4.3541560    4.3937561
:EIG00071:       4.4382845    4.5040022    4.5065187    4.6345466    4.6436003
:EIG00076:       4.6731657    4.7145212    4.7536294    4.7579941    4.8328070
:EIG00081:       4.8394649    4.8728832    4.9223743    4.9559720    4.9733296
:EIG00086:       5.0930111    5.1387099    5.2123917    5.2492315    5.2873310
:EIG00091:       5.3242329    5.3283898    5.3943492    5.4263470    5.4280083
:EIG00096:       5.4591393    5.5358489    5.5378236    5.6105513    5.6522809
 
:EIG00101:       5.7286901    5.8463879    5.9002380    5.9605323    5.9692272
:EIG00106:       6.0613753    6.0715974    6.1252202    6.1806700    6.2581409
:EIG00111:       6.3546221    6.3852591    6.5033405    6.5379786    6.5947058
:EIG00116:       6.6421150    6.7275700    6.7386606    6.7912370    6.8248398
:EIG00121:       6.9109069    6.9457676    6.9950522    7.0328104    7.1107500
:EIG00126:       7.1532973    7.1997651    7.2297031    7.2781067    7.3230537
:EIG00131:       7.3901201    7.4157407    7.4221474    7.5507367    7.6015094
:EIG00136:       7.6097127    7.6256489    7.7430628    7.7688815    7.7803484
:EIG00141:       7.7922483    7.8163427    7.8397297    7.9432285    7.9734499
:EIG00146:       7.9818451    8.0264717    8.1113825    8.1489011    8.1723538
 
:EIG00151:       8.2215343    8.2276907    8.2816861
       ********************************************************

:KPT   :      NUMBER OF K-POINTS:   288
   0.0   0.0 angle (M,z), angle (M,x) deg
 
        SPIN-ORBIT EIGENVALUES:
     K=   0.06250   0.00000   0.06250            1
      MATRIX SIZE=  306   WEIGHT= 4.00
     EIGENVALUES ARE:
          -1.7058716   -1.7058716   -1.6600443   -1.6600443   -0.5354196
          -0.5354196   -0.4112306   -0.4112306   -0.3183506   -0.3183506
          -0.1970412   -0.1970412   -0.1933153   -0.1933153   -0.1743561
          -0.1743561    0.7413659    0.7413660    0.8108340    0.8108340
           0.9181743    0.9181743    0.9229567    0.9229567    0.9244572
           0.9244572    0.9305649    0.9305649    0.9398277    0.9398277
           0.9536605    0.9536605    0.9643913    0.9643913    0.9739456
           0.9739456    0.9816255    0.9816255    0.9831831    0.9831831

           0.9901032    0.9901032    0.9928342    0.9928342    0.9953211
           0.9953211    1.0094842    1.0094842    1.0292655    1.0292655
           1.0510430    1.0510430    1.1443078    1.1443078    1.1564400
           1.1564400    1.2217754    1.2217755    1.2568794    1.2568794
           1.2766433    1.2766433    1.4324796    1.4324796    1.4504256
           1.4504256    1.5266705    1.5266705    1.8298164    1.8298164
           1.8780719    1.8780719    1.9134713    1.9134713    2.0375090
           2.0375090    2.1320098    2.1320098    2.2059285    2.2059285

           2.3662937    2.3662937    2.4440271    2.4440271    2.5750851
           2.5750851    2.6038063    2.6038063    2.7568044    2.7568044
           2.7636436    2.7636436    2.7743480    2.7743480    2.9255933
           2.9255933    2.9435226    2.9435226    3.0772600    3.0772600
           3.1482667    3.1482667    3.2404641    3.2404641    3.2565166
           3.2565166    3.3911303    3.3911303    3.4462798    3.4462798
           3.4587790    3.4587790    3.5200664    3.5200664    3.6638295
           3.6638295    3.6945142    3.6945142    3.8014402    3.8014402

           3.8316553    3.8316553    3.9541164    3.9541164    3.9987178
           3.9987178    4.0217990    4.0217990    4.0788079    4.0788079
           4.2382036    4.2382036    4.2419574    4.2419574    4.3282323
           4.3282323    4.3540292    4.3540292    4.3938853    4.3938853
           4.4387166    4.4387166
       ********************************************************
:GAP (global)   :    0.0    Ry =     0.0   eV (metal)
:GAP (this spin):    0.0    Ry =     0.0   eV (metal)
         Bandranges (emin - emax) and occupancy:
:BAN00018:  18    0.733615    0.882230  1.00000000
:BAN00019:  19    0.792227    0.900572  1.00000000
:BAN00020:  20    0.792227    0.900572  1.00000000
:BAN00021:  21    0.817835    0.931908  1.00000000
:BAN00022:  22    0.817835    0.931908  1.00000000
:BAN00023:  23    0.882790    0.938104  0.99299529
:BAN00024:  24    0.882790    0.938104  0.99299528
:BAN00025:  25    0.900021    0.951289  0.69223084
:BAN00026:  26    0.900021    0.951289  0.69223071
:BAN00027:  27    0.922472    0.954810  0.31477403
:BAN00028:  28    0.922472    0.954810  0.31477385
:BAN00029:  29    0.936124    0.958778  0.00000000
:BAN00030:  30    0.936124    0.958778  0.00000000
:BAN00031:  31    0.942450    0.967146  0.00000000
:BAN00032:  32    0.942450    0.967146  0.00000000
:BAN00033:  33    0.956591    0.975955  0.00000000
        Energy to separate low and high energystates:    0.68361


:NOE  : NUMBER OF ELECTRONS          =   26.000

:FER  : F E R M I - ENERGY(TETRAH.M.)=   0.9357478361
:GMA  : POTENTIAL AND CHARGE CUT-OFF  12.00 Ry**.5

:POS001: ATOM   -1 X,Y,Z = 0.00000 0.89750 0.25000  MULT= 2  ZZ= 59.000  Pr1       

       LMMAX 16
       LM=   0 0  1 0  2 0  2 2  3 0  3 2  4 0  4 2  4 4  5 0  5 2  5 4  6 0  6 2  6 4  6 6

:CHA001: TOTAL VALENCE CHARGE INSIDE SPHERE   1 =   9.6716    (RMT=  2.3000 )
:PCS001: PARTIAL CHARGES SPHERE =  1 S,P,D,F,PX,PY,PZ,D-Z2,D-X2Y2,D-XY,D-XZ,D-YZ 
:QTL001: 1.9394 4.9802 0.7275 2.0232 1.6584 1.6555 1.6663 0.1404 0.1299 0.1507 0.1489 0.1577
        Q-s-low E-s-low   Q-p-low E-p-low   Q-d-low E-d-low   Q-f-low E-f-low
:EPL001:  1.8686 -1.6574    4.9010 -0.3504    0.0098 -0.3638    0.0030 -0.3771
        Q-s-hi  E-s-hi    Q-p-hi  E-p-hi    Q-d-hi  E-d-hi    Q-f-hi  E-f-hi 
:EPH001:  0.0707  0.8460    0.0792  0.8746    0.7176  0.8609    2.0202  0.9104

                      VXX         VYY         VZZ       UP TO R
:VZZ001:             2.30236     7.28723    -9.58959       2.300

:CHA  : TOTAL VALENCE CHARGE INSIDE UNIT CELL =      26.000000

:SUM  : SUM OF EIGENVALUES =          -2.054621776


        1.ATOM      Pr1                  14 CORE STATES
       CORE-FORCE in mRy/a.u. = |F|      Fx             Fy             Fz
:FCO001:   1.ATOM   1637.186220923981      0.000000000000      0.000000000000   1637.186220923981

:1S 001: 1S               -3066.655254591 Ry
:2S 001: 2S                -492.408764730 Ry
:2PP001: 2P*               -465.507400750 Ry
:2P 001: 2P                -430.110079545 Ry
:3S 001: 3S                -105.505014355 Ry
:3PP001: 3P*                -94.042618735 Ry
:3P 001: 3P                 -87.034903990 Ry
:3DD001: 3D*                -66.961102036 Ry
:3D 001: 3D                 -65.449621479 Ry
:4S 001: 4S                 -20.174382129 Ry
:4PP001: 4P*                -15.880381018 Ry
:4P 001: 4P                 -14.351868486 Ry
:4DD001: 4D*                 -7.282608460 Ry
:4D 001: 4D                  -7.012817870 Ry
:CINT001 Core Integral Atom   1   45.998500

       DENSITY AT NUCLEUS
        JATOM        VALENCE       SEMI-CORE          CORE           TOTAL
:RTO001:   1      647.654595        0.000000   656825.978225   657473.632820
     
       CHARGES OF NEW CHARGE DENSITY
:NTO   : INTERSTITIAL CHARGE =     6.656771
:NPC   : PW Pseudocharge     =    17.391892
:NTO001: CHARGE SPHERE  1    =    55.670114

:NEC01: NUCLEAR AND ELECTRONIC CHARGE    118.00000   117.99700
     
       CHARGES OF OLD CHARGE DENSITY
:OTO   : INTERSTITIAL CHARGE =     6.658146
:OPC   : PW Pseudocharge     =    17.390142
:OTO001: CHARGE SPHERE  1    =    55.670927

:NEC02: NUCLEAR AND ELECTRONIC CHARGE    118.00000   118.00000
     
       CONVERGENCE TEST
:DTO001: DIFFERENCE IN SPHERE  1 =  0.0017404

:DIS  :  CHARGE DISTANCE       ( 0.0017404 for atom    1 spin 1)      0.0017404
 PW Mixed is          360
 
******************************************************
* MULTISECANT MIXING VER9 RELEASE 10.4.0              *
* Slow Mode, cautious                                *
* Fixed density scale                                *
* Regularization       1.000E-04                     *
* Step Trust Radius    0.75000                       *
* Trust Upper Limit    2.000E+00                     *
* Max Number of Memory Steps   12                    *
******************************************************
 
:PWTMP   2.3819E+02  1.9467E+02  3.4012E+02
:PLANE:  PW TOTAL      5.6417 DISTAN   3.53E-03  6.26E-02 %
:CHARG:  CLM/ATOM   1381.9530 DISTAN   8.69E-03  6.29E-04 %
 
Step History
        DMIX         DMIXT        Red     Pred      Trust     Lambda    MagRel    MagAbs     Beta
  1   3.5000E-02   3.5000E-02 -1.00E+00  1.00E+00 -1.00E+01  1.00E+00  3.50E-02  3.50E-02  1.00E+00
  2   2.5000E-02   2.5000E-02  7.47E-01  1.00E+00 -1.00E+01  1.00E+00  2.50E-02  2.51E-03  1.00E+00
  3   2.0000E-02   2.0000E-02  3.13E-01  3.19E-01  4.81E-01  5.03E-01  1.84E-01  1.38E-02  1.00E+00
  4   1.3058E-02   1.3058E-02  9.83E-01  1.00E+00  6.01E-01  1.25E+00  1.33E-02  3.13E-04  1.00E+00
  5   3.2645E-02   2.8218E-02 -1.00E+00  4.41E-01  6.40E-01  1.00E+00  6.40E-01  1.48E-02  1.00E+00
:JACOBIANS    1.639E-01   4.737E-01
  
:NORMS:  1/Froebius, Min, Max, Used   0.5631E+00  0.3277E+00  0.9113E+00  0.6886E+00
:INFO :  Number of Memory Steps    4 Skipping    0
:INFO :  SLambda=    0.4465589698  Max    0.4465589698
:PREDicted Charge, CTotal, PW Trust    2.255E-03   4.510E-03   1.750E-02
:PREDicted DMix, Beta, BLim   1.0000E-02  1.1470E+00  9.2016E-01

Eigenvalues, unscaled except for SY+YY
   #     SY Real        SY Imag          SS             YY         SY+YY Real      SY+YY Imag
   1   1.453492E+00   0.000000E+00   1.206511E+00   2.544468E+00   3.084236E+00   0.000000E+00
   2   2.265874E-01   0.000000E+00   6.193031E-02   1.455531E+00   1.666018E+00   0.000000E+00
   3   4.730449E-09   0.000000E+00   5.217065E-08   8.721804E-07   1.881960E-07   0.000000E+00
   4   2.120513E-07   0.000000E+00   3.124584E-10   1.813661E-07   1.011537E-06   0.000000E+00
 
:INFO :  Singular value  3.084E+00 Weight  1.000E+00 Projection -1.532E-03
:INFO :  Singular value  1.666E+00 Weight  1.000E+00 Projection -1.599E-03
:INFO :  Singular value  1.013E-06 Weight  1.585E-05 Projection -1.514E-04
:INFO :  Singular value  1.879E-07 Weight  5.454E-07 Projection  1.504E-06
:RANK :  ACTIVE   2.00/4  =  50.00 % ; YY RANK   2.00/4  =  50.00 %
 
:BLIM :  VZERO Control Off
[...]
:DIRQ :  |MSR1|= 1.926E-04 |PRATT|= 4.696E-04 ANGLE=  25.3 DEGREES
:DIRT :  |MSR1|= 2.132E-04 |PRATT|= 5.176E-04 ANGLE=  23.3 DEGREES
:MIX  :   MSR1   REGULARIZATION:  3.31E-04 GREED: 0.07523  Newton 1.00  0.4120                
     
       CHARGES OF MIXED CHARGE DENSITY
:CTO   : INTERSTITIAL CHARGE =     6.659864
:CPC   : PW Pseudocharge     =    17.400316
:CTO001: CHARGE SPHERE  1    =    55.670068

:NEC03: NUCLEAR AND ELECTRONIC CHARGE    118.00000   118.00000

PW CHANGE     H    K    L      Current       Change    Residue
:PTO001:      0    0    0  7.07411110E-02 -7.231E-07 -1.645E-06
:PTO003:      0    2    0  1.73279784E-02 -8.462E-07 -2.716E-06
:PTO004:     -1    1    0  8.29281301E-02 -1.421E-06 -3.556E-06
:PTO005:      0    2   -1 -9.52612218E-02  1.362E-06  3.241E-06
:PTO006:      0    0   -2 -4.93724528E-02  6.768E-07  1.476E-06
:PTO007:     -1    1   -1 -1.00356544E-01  1.344E-06  2.456E-06
:PTO008:      0    2   -2 -1.47367738E-02  5.380E-07  1.386E-06
:PTO009:     -1    1   -2 -7.46094999E-02  1.991E-06  3.959E-06
:PTO011:     -1    3    0 -1.15320538E-02  1.298E-07  1.331E-08
:PTO012:     -1    3   -1 -4.84363165E-02  1.371E-06  3.246E-06
:PTO013:      0    4    0 -8.44641648E-03  1.676E-07  3.737E-07
:PTO014:      0    2   -3  1.94919780E-02 -2.524E-07 -6.601E-07

:ENE  : ********** TOTAL ENERGY IN Ry =       -36944.33367987

       TOTAL FORCE IN mRy/a.u. = |F|     Fx             Fy             Fz     with/without FOR in case.in2
:FOR001:   1.ATOM          9.091          0.000          0.000         -9.091 partial forces
       TOTAL FORCE WITH RESPECT TO GLOBAL CARTESIAN COORDINATES:
:FCA001:   1.ATOM                         0.000         -9.091          0.000 partial forces
       TOTAL FORCE WITH RESPECT TO THE GLOBAL COORDINATE SYSTEM:
:FGL001:   1.ATOM                 0.000000000    -9.091416100     0.000000000 partial forces
 Flat Integration
 New Mode for Coulomb Integral
 Consistent 3/8+Simpson combinations
 Extension of core to zero
 LDM version in phi
 Fifth-order quadrature in outwin


            ---------
:ITE029: 29. ITERATION
            ---------

:NATO :    1 INDEPENDENT AND    2 TOTAL ATOMS IN UNITCELL
       SUBSTANCE: aU                                                          

       LATTICE                      = CXY 
:POT  : POTENTIAL OPTION EX_LDA EC_LDA VX_LDA VC_LDA
:LAT  : LATTICE CONSTANTS=  5.76241 11.69339 10.09514    1.571    1.571    1.571
:VOL  : UNIT CELL VOLUME =     340.11595
       MODE OF CALCULATION IS       = RELA
       NON-SPINPOLARIZED CALCULATION
:IFFT  : FFT-parameters:   48   96   80 Factor: 2.00


   CONVERGENCE PARAMETER FOR PSEUDOCHARGE: NCON=  9
   MAXIMAL VALUE OF RMT(JATOM)*ABSK(NKK) : RK  =27.59891


:VKCOUL :  VK-COUL convergence: 0.197E-06
       ATOMNUMBER=  1 Pr1        VCOUL-ZERO =  0.41069E+00
:EFG001:                        EFG         =    -9.59074   *10**21  V / m**2
                               V20  TOT/SRF=    -8.30582    -0.05217
                               V22  TOT/SRF=    -2.38400    -0.00769
                               V22M TOT/SRF=     0.00000     0.00000
                               V21  TOT/SRF=     0.00000     0.00000
                               V21M TOT/SRF=     0.00000     0.00000

              2.41137    0.00000    0.00000        2.41137    0.00000    0.00000
              0.00000    7.17937    0.00000        0.00000    7.17937    0.00000
              0.00000    0.00000   -9.59074        0.00000    0.00000   -9.59074

         MAIN DIRECTIONS OF THE EFG   1.0000  0.0000  0.0000
                                      0.0000  1.0000  0.0000
                                      0.0000  0.0000  1.0000
:ANG001:  ANGLE WITH OLD X-AXIS =         0.0

:ETA001:                         ASYMM. ETA =     0.49715


     HELLMANN-FEYNMAN-FORCE IN mRy/a.u. = |F|  Fx       Fy             Fz
:FHF001:   1.ATOM   1641.703382823702      0.000000000000      0.000000000000  -1641.703382823702

:FIT001: LUSE= 13 SIGMA OF V-XC FIT FOR ATOM  1  0.5779158E-04
:FIT001: LUSE= 13 SIGMA OF V-XC FIT FOR ATOM  1  0.5779158E-04
:DEN  : DENSITY INTEGRAL  =        -14186.12358357   (Ry)
       ELS_POTENTIAL_AT Z=0 and Z=0.5:   0.89778   0.89778
       ELS_POTENTIAL_AT Y=0 and Y=0.5:   0.02796   0.02796
:VZERO:v0,v0c,v0x   0.22152   0.89778  -0.67627 v5,v5c,v5x   0.22152   0.89778  -0.67627
:VZERY:v0,v0c,v0x  -0.86547   0.02796  -0.89343 v5,v5c,v5x  -0.86547   0.02796  -0.89343
:VZERX:v0,v0c,v0x  -1.23504  -0.39314  -0.84190 v5,v5c,v5x  -1.23504  -0.39314  -0.84190
:LMAX-WF:   10   Non-Spherical LMAX:   4

          ATOMIC SPHERE DEPENDENT PARAMETERS FOR ATOM  Pr1       
:e__0001: OVERALL ENERGY PARAMETER IS    0.7360
          OVERALL BASIS SET ON ATOM IS LAPW
:E0_0001: E( 0)=    0.7360
             APW+lo
:E0_0001: E( 0)=   -1.6998   E(BOTTOM)=   -2.336   E(TOP)=   -1.063  4  5   210
             LOCAL ORBITAL
:E1_0001: E( 1)=    1.1360
             APW+lo
:E1_0001: E( 1)=   -0.2300   E(BOTTOM)=   -1.189   E(TOP)=    0.729  3  4   215
             LOCAL ORBITAL
:E3_0001: E( 3)=    0.9424   E(BOTTOM)=    0.737   E(TOP)=    1.148  0  1   115
             APW+lo
:E2_0001: E( 2)=    0.7360   E(BOTTOM)=    0.549   E(TOP)= -200.000  2 -1   123
             APW+lo

       K=   0.06250   0.00000   0.06250            1
:RKM  : MATRIX SIZE   323LOs:  40  RKM= 8.47  WEIGHT= 4.00  PGR:    
       EIGENVALUES ARE:
:EIG00001:      -1.7057005   -1.6598785   -0.4861678   -0.3125520   -0.2726055
:EIG00006:      -0.2570172   -0.2402535   -0.2399482    0.7414983    0.8111704
:EIG00011:       0.9209359    0.9260883    0.9273165    0.9330605    0.9434867
:EIG00016:       0.9629499    0.9698769    0.9710053    0.9762025    0.9802360
:EIG00021:       0.9886950    0.9899964    0.9909332    1.0065622    1.0279059
:EIG00026:       1.0508826    1.1490293    1.1522674    1.2214653    1.2573376
:EIG00031:       1.2762432    1.4327201    1.4503304    1.5267318    1.8296834
:EIG00036:       1.8782499    1.9137264    2.0377355    2.1324580    2.2067146
:EIG00041:       2.3663827    2.4448402    2.5759415    2.6039933    2.7570417
:EIG00046:       2.7637191    2.7752557    2.9288052    2.9407058    3.0773025
 
:EIG00051:       3.1489705    3.2486674    3.2501577    3.3915509    3.4491295
:EIG00056:       3.4558757    3.5216281    3.6635396    3.6931848    3.8021569
:EIG00061:       3.8306130    3.9519000    3.9968767    4.0219460    4.0787974
:EIG00066:       4.2389216    4.2414146    4.3283663    4.3543750    4.3939338
:EIG00071:       4.4384664    4.5041982    4.5067018    4.6347509    4.6438049
:EIG00076:       4.6733800    4.7147062    4.7538363    4.7581932    4.8330205
:EIG00081:       4.8396541    4.8730976    4.9225570    4.9561822    4.9735403
:EIG00086:       5.0932380    5.1389212    5.2125877    5.2494139    5.2875548
:EIG00091:       5.3244405    5.3285941    5.3945068    5.4265633    5.4281661
:EIG00096:       5.4593606    5.5360748    5.5380337    5.6107448    5.6524842
 
:EIG00101:       5.7288881    5.8465936    5.9004441    5.9607397    5.9694446
:EIG00106:       6.0615670    6.0718061    6.1254526    6.1808788    6.2583411
:EIG00111:       6.3548188    6.3854578    6.5035301    6.5381864    6.5948853
:EIG00116:       6.6422663    6.7277824    6.7388342    6.7914156    6.8249981
:EIG00121:       6.9110747    6.9459506    6.9952294    7.0330053    7.1109588
:EIG00126:       7.1534990    7.1999686    7.2299017    7.2782967    7.3232531
:EIG00131:       7.3903141    7.4159256    7.4223535    7.5509254    7.6016968
:EIG00136:       7.6099031    7.6258476    7.7432346    7.7690754    7.7805541
:EIG00141:       7.7924319    7.8165260    7.8399386    7.9434300    7.9736366
:EIG00146:       7.9819968    8.0266392    8.1115765    8.1491040    8.1725459
 
:EIG00151:       8.2217117    8.2278925    8.2817957
       ********************************************************

:KPT   :      NUMBER OF K-POINTS:   288
   0.0   0.0 angle (M,z), angle (M,x) deg
 
        SPIN-ORBIT EIGENVALUES:
     K=   0.06250   0.00000   0.06250            1
      MATRIX SIZE=  306   WEIGHT= 4.00
     EIGENVALUES ARE:
          -1.7057014   -1.7057014   -1.6598792   -1.6598792   -0.5352164
          -0.5352164   -0.4110635   -0.4110635   -0.3181663   -0.3181663
          -0.1969052   -0.1969052   -0.1931664   -0.1931664   -0.1741833
          -0.1741833    0.7415936    0.7415936    0.8110586    0.8110586
           0.9183564    0.9183564    0.9231450    0.9231450    0.9247386
           0.9247386    0.9307759    0.9307759    0.9401083    0.9401083
           0.9538656    0.9538656    0.9646166    0.9646166    0.9741550
           0.9741550    0.9818365    0.9818365    0.9834323    0.9834323

           0.9903035    0.9903035    0.9930321    0.9930321    0.9955330
           0.9955330    1.0097820    1.0097820    1.0294287    1.0294287
           1.0512068    1.0512068    1.1445333    1.1445333    1.1566618
           1.1566619    1.2219643    1.2219643    1.2570624    1.2570624
           1.2768499    1.2768499    1.4326927    1.4326927    1.4506152
           1.4506152    1.5268850    1.5268850    1.8300459    1.8300459
           1.8782975    1.8782975    1.9137167    1.9137167    2.0377088
           2.0377088    2.1322321    2.1322321    2.2061703    2.2061703

           2.3665281    2.3665281    2.4442494    2.4442494    2.5752849
           2.5752849    2.6040246    2.6040246    2.7570079    2.7570079
           2.7638722    2.7638722    2.7745787    2.7745787    2.9258088
           2.9258088    2.9437476    2.9437476    3.0774649    3.0774649
           3.1484594    3.1484594    3.2406785    3.2406785    3.2567353
           3.2567353    3.3913320    3.3913320    3.4464715    3.4464715
           3.4589744    3.4589744    3.5202788    3.5202788    3.6639817
           3.6639817    3.6947045    3.6947045    3.8016535    3.8016535

           3.8318568    3.8318568    3.9543247    3.9543247    3.9989237
           3.9989237    4.0219964    4.0219964    4.0789755    4.0789755
           4.2384236    4.2384236    4.2421493    4.2421493    4.3284263
           4.3284263    4.3542481    4.3542481    4.3940630    4.3940630
           4.4388986    4.4388986
       ********************************************************
:GAP (global)   :    0.0    Ry =     0.0   eV (metal)
:GAP (this spin):    0.0    Ry =     0.0   eV (metal)
         Bandranges (emin - emax) and occupancy:
:BAN00018:  18    0.733843    0.882455  1.00000000
:BAN00019:  19    0.792436    0.900812  1.00000000
:BAN00020:  20    0.792436    0.900812  1.00000000
:BAN00021:  21    0.818040    0.932175  1.00000000
:BAN00022:  22    0.818040    0.932175  1.00000000
:BAN00023:  23    0.882974    0.938289  0.99307089
:BAN00024:  24    0.882974    0.938289  0.99307088
:BAN00025:  25    0.900206    0.951529  0.69231706
:BAN00026:  26    0.900206    0.951529  0.69231700
:BAN00027:  27    0.922686    0.955040  0.31461216
:BAN00028:  28    0.922686    0.955040  0.31461201
:BAN00029:  29    0.936372    0.958985  0.00000000
:BAN00030:  30    0.936372    0.958985  0.00000000
:BAN00031:  31    0.942704    0.967349  0.00000000
:BAN00032:  32    0.942704    0.967349  0.00000000
:BAN00033:  33    0.956811    0.976180  0.00000000
        Energy to separate low and high energystates:    0.68384


:NOE  : NUMBER OF ELECTRONS          =   26.000

:FER  : F E R M I - ENERGY(TETRAH.M.)=   0.9359740448
:GMA  : POTENTIAL AND CHARGE CUT-OFF  12.00 Ry**.5

:POS001: ATOM   -1 X,Y,Z = 0.00000 0.89750 0.25000  MULT= 2  ZZ= 59.000  Pr1       

       LMMAX 16
       LM=   0 0  1 0  2 0  2 2  3 0  3 2  4 0  4 2  4 4  5 0  5 2  5 4  6 0  6 2  6 4  6 6

:CHA001: TOTAL VALENCE CHARGE INSIDE SPHERE   1 =   9.6716    (RMT=  2.3000 )
:PCS001: PARTIAL CHARGES SPHERE =  1 S,P,D,F,PX,PY,PZ,D-Z2,D-X2Y2,D-XY,D-XZ,D-YZ 
:QTL001: 1.9394 4.9803 0.7276 2.0230 1.6584 1.6555 1.6663 0.1404 0.1299 0.1507 0.1489 0.1577
        Q-s-low E-s-low   Q-p-low E-p-low   Q-d-low E-d-low   Q-f-low E-f-low
:EPL001:  1.8686 -1.6572    4.9010 -0.3503    0.0098 -0.3636    0.0030 -0.3769
        Q-s-hi  E-s-hi    Q-p-hi  E-p-hi    Q-d-hi  E-d-hi    Q-f-hi  E-f-hi 
:EPH001:  0.0708  0.8463    0.0792  0.8748    0.7177  0.8611    2.0200  0.9106

                      VXX         VYY         VZZ       UP TO R
:VZZ001:             2.37834     7.14384    -9.52218       2.300

:CHA  : TOTAL VALENCE CHARGE INSIDE UNIT CELL =      26.000000

:SUM  : SUM OF EIGENVALUES =          -2.049708411


        1.ATOM      Pr1                  14 CORE STATES
       CORE-FORCE in mRy/a.u. = |F|      Fx             Fy             Fz
:FCO001:   1.ATOM   1632.406244482748      0.000000000000      0.000000000000   1632.406244482748

:1S 001: 1S               -3066.655436494 Ry
:2S 001: 2S                -492.408872288 Ry
:2PP001: 2P*               -465.507526127 Ry
:2P 001: 2P                -430.110198253 Ry
:3S 001: 3S                -105.504934085 Ry
:3PP001: 3P*                -94.042549025 Ry
:3P 001: 3P                 -87.034823426 Ry
:3DD001: 3D*                -66.961051569 Ry
:3D 001: 3D                 -65.449567250 Ry
:4S 001: 4S                 -20.174130685 Ry
:4PP001: 4P*                -15.880130785 Ry
:4P 001: 4P                 -14.351615727 Ry
:4DD001: 4D*                 -7.282361943 Ry
:4D 001: 4D                  -7.012571291 Ry
:CINT001 Core Integral Atom   1   45.998500

       DENSITY AT NUCLEUS
        JATOM        VALENCE       SEMI-CORE          CORE           TOTAL
:RTO001:   1      647.653064        0.000000   656826.020659   657473.673722
     
       CHARGES OF NEW CHARGE DENSITY
:NTO   : INTERSTITIAL CHARGE =     6.656872
:NPC   : PW Pseudocharge     =    17.392134
:NTO001: CHARGE SPHERE  1    =    55.670063

:NEC01: NUCLEAR AND ELECTRONIC CHARGE    118.00000   117.99700
     
       CHARGES OF OLD CHARGE DENSITY
:OTO   : INTERSTITIAL CHARGE =     6.659864
:OPC   : PW Pseudocharge     =    17.400316
:OTO001: CHARGE SPHERE  1    =    55.670068

:NEC02: NUCLEAR AND ELECTRONIC CHARGE    118.00000   118.00000
     
       CONVERGENCE TEST
:DTO001: DIFFERENCE IN SPHERE  1 =  0.0000489

:DIS  :  CHARGE DISTANCE       ( 0.0000489 for atom    1 spin 1)      0.0000489
 PW Mixed is          360
 
******************************************************
* MULTISECANT MIXING VER9 RELEASE 10.4.0              *
* Standard Mode with controls                        *
* Fixed density scale                                *
* Regularization       1.000E-04                     *
* Trust Upper Limit    5.000E+00                     *
* Max Number of Memory Steps    8                    *
******************************************************
 
:PWTMP   2.3819E+02  1.9467E+02  3.4012E+02
:PLANE:  PW TOTAL      5.6452 DISTAN   1.19E-04  2.10E-03 %
:CHARG:  CLM/ATOM   1381.9525 DISTAN   1.68E-04  1.21E-05 %
 
Step History
        DMIX         DMIXT        Red     Pred      Trust     Lambda    MagRel    MagAbs     Beta
  3   2.0000E-02   2.0000E-02  3.13E-01  3.19E-01  4.81E-01  5.03E-01  1.84E-01  1.38E-02  1.00E+00
  4   1.3058E-02   1.3058E-02  9.83E-01  1.00E+00  6.01E-01  1.25E+00  1.33E-02  3.13E-04  1.00E+00
  5   3.2645E-02   2.8218E-02  4.06E-01  4.41E-01  6.40E-01  4.47E-01  6.40E-01  1.48E-02  1.00E+00
  6   1.7918E-02   1.7918E-02  9.24E-01  9.84E-01  8.00E-01  2.78E-01  2.50E-01  2.34E-03  1.00E+00
  7   4.4796E-02   4.4796E-02  2.81E-01  2.99E-01  8.66E-01  1.33E-01  5.03E-01  4.36E-03  1.00E+00
  8   1.7918E-02   1.7918E-02  9.75E-01  1.00E+00  1.16E+00  1.00E+00  1.83E-02  4.45E-05  9.96E-01
  9   4.4796E-02   4.4796E-02  2.38E-01  2.76E-01  1.18E+00  3.14E-01  7.20E-01  1.71E-03  1.00E+00
 10   3.0090E-02   3.0090E-02  9.18E-01  9.99E-01  1.58E+00  1.00E+00  3.63E-02  2.04E-05  9.99E-01
 11   7.5226E-02   7.5226E-02 -1.00E+00  4.66E-01  1.72E+00  1.00E+00  4.12E-01  2.13E-04  1.00E+00
:JACOBIANS    3.584E-01   1.854E+00
  
:NORMS:  1/Froebius, Min, Max, Used   0.7335E+00  0.4030E+00  0.9893E+00  0.9626E+00
:INFO :  Number of Memory Steps    8 Skipping    2
:INFO :  SLambda=    0.1923610147  Max    0.1923610147
:PREDicted Charge, CTotal, PW Trust    4.712E-06   9.423E-06   1.522E-04
:PREDicted DMix, Beta, BLim   6.1833E-04  9.9528E-01  1.3943E+00

Eigenvalues, unscaled except for SY+YY
   #     SY Real        SY Imag          SS             YY         SY+YY Real      SY+YY Imag
   1   2.972955E+00   0.000000E+00   2.927556E+00   3.159419E+00   3.723791E+00   0.000000E+00
   2   1.482311E+00   0.000000E+00   1.122887E+00   2.203638E+00   2.462416E+00   0.000000E+00
   3   5.244906E-01   0.000000E+00   2.010247E-01   1.593978E+00   1.722494E+00   0.000000E+00
   4   2.383349E-01   0.000000E+00   5.283467E-02   1.041223E+00   1.093313E+00   0.000000E+00
   5   2.367168E-04   0.000000E+00   6.134754E-05   1.723719E-03   1.772157E-03   0.000000E+00
   6   7.840089E-06   0.000000E+00   2.392418E-06   1.720794E-05   1.919612E-05   0.000000E+00
   7   1.200194E-10   0.000000E+00   3.966123E-11   2.668830E-08   5.333339E-10   0.000000E+00
   8   8.994423E-10   0.000000E+00   2.013705E-11   5.120493E-10   2.682805E-08   0.000000E+00
 
:INFO :  Singular value  3.724E+00 Weight  1.000E+00 Projection  1.879E-06
:INFO :  Singular value  2.462E+00 Weight  1.000E+00 Projection -2.949E-06
:INFO :  Singular value  1.722E+00 Weight  1.000E+00 Projection -9.349E-06
:INFO :  Singular value  1.093E+00 Weight  1.000E+00 Projection  4.353E-07
:INFO :  Singular value  1.772E-03 Weight  9.692E-01 Projection  7.306E-04
:INFO :  Singular value  1.920E-05 Weight  3.678E-03 Projection  1.720E-04
:INFO :  Singular value  2.683E-08 Weight  7.210E-09 Projection  8.603E-10
:INFO :  Singular value  5.333E-10 Weight  2.850E-12 Projection  4.626E-12
:RANK :  ACTIVE   4.97/8  =  62.16 % ; YY RANK   4.97/8  =  62.13 %
 
:DLIM :  Beta Active  9.965E-01
:BLIM :  VZERO Control Off
:TRUST:  Step 2.29E+00  Charge 1.52E-02 (e) CTO  5.06E-02 (e) PW  7.09E-02 (e)
:DIRM :  MEMORY  8/8  SCALE   1.000 RED  0.40 PRED  0.47 NEXT  0.99 BETA  1.00
:TRAVE:  Charge 2.61E-05 (e) CTO  5.22E-05 (e) PW  2.39E-04 (e)
:DIRP :  |MSR1|= 1.031E-05 |PRATT|= 1.186E-04 ANGLE=   4.1 DEGREES
:DIRQ :  |MSR1|= 1.063E-05 |PRATT|= 1.677E-04 ANGLE=  32.7 DEGREES
:DIRT :  |MSR1|= 1.481E-05 |PRATT|= 2.054E-04 ANGLE=  26.6 DEGREES
:MIX  :   MSD1   REGULARIZATION:  3.16E-04 GREED: 0.03009  Newton 1.00  0.0721                
     
       CHARGES OF MIXED CHARGE DENSITY
:CTO   : INTERSTITIAL CHARGE =     6.659864
:CPC   : PW Pseudocharge     =    17.400286
:CTO001: CHARGE SPHERE  1    =    55.670068

:NEC03: NUCLEAR AND ELECTRONIC CHARGE    118.00000   118.00000

PW CHANGE     H    K    L      Current       Change    Residue
:PTO001:      0    0    0  7.07410225E-02 -8.848E-08 -9.650E-07
:PTO003:      0    2    0  1.73279108E-02 -6.757E-08 -8.027E-07
:PTO004:     -1    1    0  8.29279688E-02 -1.614E-07 -1.724E-06
:PTO005:      0    2   -1 -9.52610400E-02  1.817E-07  2.089E-06
:PTO006:      0    0   -2 -4.93723582E-02  9.459E-08  1.143E-06
:PTO007:     -1    1   -1 -1.00356366E-01  1.783E-07  1.915E-06
:PTO008:      0    2   -2 -1.47367309E-02  4.291E-08  4.232E-07
:PTO009:     -1    1   -2 -7.46093135E-02  1.864E-07  2.325E-06
:PTO011:     -1    3    0 -1.15320353E-02  1.846E-08  1.928E-07
:PTO012:     -1    3   -1 -4.84361915E-02  1.250E-07  1.524E-06
:PTO013:      0    4    0 -8.44639697E-03  1.951E-08  2.303E-07
:PTO014:      0    2   -3  1.94919330E-02 -4.497E-08 -6.022E-07

:ENE  : ********** TOTAL ENERGY IN Ry =       -36944.33367977

       TOTAL FORCE IN mRy/a.u. = |F|     Fx             Fy             Fz     with/without FOR in case.in2
:FOR001:   1.ATOM          9.297          0.000          0.000         -9.297 partial forces
       TOTAL FORCE WITH RESPECT TO GLOBAL CARTESIAN COORDINATES:
:FCA001:   1.ATOM                         0.000         -9.297          0.000 partial forces
       TOTAL FORCE WITH RESPECT TO THE GLOBAL COORDINATE SYSTEM:
:FGL001:   1.ATOM                 0.000000000    -9.297138341     0.000000000 partial forces
