
------- case.scf0 --------
 Flat Integration
 New Mode for Coulomb Integral
 Consistent 3/8+Simpson combinations
 Extension of core to zero
 LDM version in phi
 Fifth-order quadrature in outwin


            ---------
:ITE063: 63. ITERATION
            ---------

:NATO :    1 INDEPENDENT AND    2 TOTAL ATOMS IN UNITCELL
       SUBSTANCE: aU                                                          

       LATTICE                      = CXY 
:POT  : POTENTIAL OPTION EX_LDA EC_LDA VX_LDA VC_LDA
:LAT  : LATTICE CONSTANTS=  6.63103 13.45604 11.61688    1.571    1.571    1.571
:VOL  : UNIT CELL VOLUME =     518.27193
       MODE OF CALCULATION IS       = RELA
       NON-SPINPOLARIZED CALCULATION
:IFFT  : FFT-parameters:   54  108   96 Factor: 2.00


   CONVERGENCE PARAMETER FOR PSEUDOCHARGE: NCON=  9
   MAXIMAL VALUE OF RMT(JATOM)*ABSK(NKK) : RK  =27.59967


:VKCOUL :  VK-COUL convergence: 0.766E-07
       ATOMNUMBER=  1 Pr1        VCOUL-ZERO = -0.51100E-02
:EFG001:                        EFG         =    -7.33582   *10**21  V / m**2
                               V20  TOT/SRF=    -6.35301    -0.02252
                               V22  TOT/SRF=     0.84568     0.00292
                               V22M TOT/SRF=     0.00000     0.00000
                               V21  TOT/SRF=     0.00000     0.00000
                               V21M TOT/SRF=     0.00000     0.00000

              4.51359    0.00000    0.00000        4.51359    0.00000    0.00000
              0.00000    2.82223    0.00000        0.00000    2.82223    0.00000
              0.00000    0.00000   -7.33582        0.00000    0.00000   -7.33582

         MAIN DIRECTIONS OF THE EFG   1.0000  0.0000  0.0000
                                      0.0000  1.0000  0.0000
                                      0.0000  0.0000  1.0000
:ANG001:  ANGLE WITH OLD X-AXIS =         0.0

:ETA001:                         ASYMM. ETA =     0.23056


     HELLMANN-FEYNMAN-FORCE IN mRy/a.u. = |F|  Fx       Fy             Fz
:FHF001:   1.ATOM    491.808775223458      0.000000000000      0.000000000000   -491.808775223458

:FIT001: LUSE= 13 SIGMA OF V-XC FIT FOR ATOM  1  0.8337685E-05
:FIT001: LUSE= 13 SIGMA OF V-XC FIT FOR ATOM  1  0.8337685E-05
:DEN  : DENSITY INTEGRAL  =        -14140.07834225   (Ry)
       ELS_POTENTIAL_AT Z=0 and Z=0.5:   0.68240   0.68240
       ELS_POTENTIAL_AT Y=0 and Y=0.5:   0.07422   0.07422
:VZERO:v0,v0c,v0x   0.12639   0.68240  -0.55601 v5,v5c,v5x   0.12639   0.68240  -0.55601
:VZERY:v0,v0c,v0x  -0.66967   0.07422  -0.74390 v5,v5c,v5x  -0.66967   0.07422  -0.74390
:VZERX:v0,v0c,v0x  -1.08936  -0.37270  -0.71666 v5,v5c,v5x  -1.08936  -0.37270  -0.71666

------- case.scf1 --------
:LMAX-WF:   10   Non-Spherical LMAX:   4

          ATOMIC SPHERE DEPENDENT PARAMETERS FOR ATOM  Pr1       
:e__0001: OVERALL ENERGY PARAMETER IS    0.3688
          OVERALL BASIS SET ON ATOM IS LAPW
:E0_0001: E( 0)=    0.3688
             APW+lo
:E0_0001: E( 0)=   -2.1159   E(BOTTOM)=   -2.751   E(TOP)=   -1.481  4  5   170
             LOCAL ORBITAL
:E1_0001: E( 1)=    0.7688
             APW+lo
:E1_0001: E( 1)=   -0.6456   E(BOTTOM)=   -1.602   E(TOP)=    0.311  3  4   191
             LOCAL ORBITAL
:E3_0001: E( 3)=    0.5380   E(BOTTOM)=    0.330   E(TOP)=    0.746  0  1   119
             APW+lo
:E2_0001: E( 2)=    0.3688   E(BOTTOM)=    0.139   E(TOP)= -200.000  2 -1    93
             APW+lo

       K=   0.06250   0.00000   0.06250            1
:RKM  : MATRIX SIZE   473LOs:  40  RKM= 8.48  WEIGHT= 4.00  PGR:    
       EIGENVALUES ARE:
:EIG00001:      -2.0828502   -2.0724221   -0.7981125   -0.7366350   -0.7228971
:EIG00006:      -0.7181832   -0.7128094   -0.7125275    0.3334124    0.4750848
:EIG00011:       0.5524059    0.5530337    0.5530391    0.5563909    0.5585234
:EIG00016:       0.5668127    0.5712920    0.5714917    0.5739961    0.5758693
:EIG00021:       0.5796424    0.5823652    0.5832689    0.5863318    0.6287861
:EIG00026:       0.6432185    0.7119505    0.7318463    0.7454541    0.7850360
:EIG00031:       0.8005565    0.8748602    0.9187295    0.9571882    1.2236227
:EIG00036:       1.2575053    1.3454868    1.3476786    1.4978098    1.5488739
:EIG00041:       1.5957670    1.6983622    1.7647990    1.7828941    1.8659095
:EIG00046:       1.9330108    1.9429803    1.9896186    2.0517294    2.1336302
 
:EIG00051:       2.1837204    2.2386264    2.2533681    2.3144459    2.3381288
:EIG00056:       2.4207134    2.4658290    2.4686866    2.5690603    2.6109263
:EIG00061:       2.6771248    2.6970168    2.8238478    2.9121149    2.9132951
:EIG00066:       3.0102857    3.0637818    3.0741014    3.0795910    3.1688437
:EIG00071:       3.1700697    3.2205061    3.2455232    3.2874252    3.3045897
:EIG00076:       3.3436120    3.3810767    3.4161392    3.4429464    3.4665850
:EIG00081:       3.5034190    3.5465051    3.5549397    3.6066081    3.6490199
:EIG00086:       3.6784565    3.7586911    3.7621680    3.7942166    3.8066722
:EIG00091:       3.8403331    3.8623859    3.9079303    3.9110175    3.9201703
:EIG00096:       3.9764917    4.0076876    4.0090818    4.0256316    4.1056905
 
:EIG00101:       4.1656380    4.2932827    4.2985084    4.3571872    4.3951039
:EIG00106:       4.4044796    4.4454695    4.4492915    4.4974292    4.5285256
:EIG00111:       4.6097139    4.6115340    4.6484086    4.6591363    4.7128429
:EIG00116:       4.7595915    4.8349219    4.8530640    4.8747103    4.9019694
:EIG00121:       4.9206833    5.0113816    5.0331464    5.0636663    5.1095679
:EIG00126:       5.1920416    5.1981070    5.2386880    5.2841919    5.3126452
:EIG00131:       5.3229518    5.3833375    5.4156232    5.4217894    5.4426835
:EIG00136:       5.5066160    5.5481768    5.5959827    5.6104873    5.6385492
:EIG00141:       5.6520325    5.6617888    5.7090082    5.7556151    5.7892397
:EIG00146:       5.8009875    5.8143628    5.8149400    5.8299548    5.9244078
 
:EIG00151:       5.9530556    5.9653112    6.0467359    6.0657056    6.1040351
:EIG00156:       6.2052907    6.2896710    6.3172142    6.3535345    6.3567076
:EIG00161:       6.4136831    6.4650476    6.5098921    6.5210716    6.5281109
:EIG00166:       6.5997227    6.6215806    6.6308547    6.6631440    6.6991744
:EIG00171:       6.7158070    6.7782231    6.8135990    6.8172497    6.8776216
:EIG00176:       6.8904388    6.9095090    6.9595079    6.9621389    7.0001459
:EIG00181:       7.0637405    7.0773450    7.0846379    7.1048835    7.1549992
:EIG00186:       7.1680269    7.1729483    7.2680324    7.2827403    7.2854450
:EIG00191:       7.3296475    7.3454111    7.3999835    7.4072731    7.4400412
:EIG00196:       7.4452591    7.4614791    7.4885754    7.4979971    7.5453760
 
:EIG00201:       7.5511315    7.6095063    7.6194354    7.6377761    7.7025933
:EIG00206:       7.7026465    7.7154717    7.7698892    7.8024382    7.8226591
:EIG00211:       7.8333828    7.8817839    7.8907321    7.9034507    7.9120549
:EIG00216:       7.9562893    7.9641503    7.9659942    7.9875307    8.0283554
:EIG00221:       8.0481389
       ********************************************************

:KPT   :      NUMBER OF K-POINTS:   288

------- case.scfso --------
   0.0   0.0 angle (M,z), angle (M,x) deg
 
        SPIN-ORBIT EIGENVALUES:
     K=   0.06250   0.00000   0.06250            1
      MATRIX SIZE=  442   WEIGHT= 4.00
     EIGENVALUES ARE:
          -2.0828504   -2.0828504   -2.0724221   -2.0724221   -0.8955800
          -0.8955800   -0.8653481   -0.8653481   -0.7073677   -0.7073677
          -0.6550975   -0.6550975   -0.6524577   -0.6524577   -0.6460171
          -0.6460171    0.3334412    0.3334412    0.4749477    0.4749477
           0.5444460    0.5444460    0.5468594    0.5468594    0.5482050
           0.5482050    0.5494218    0.5494218    0.5515155    0.5515155
           0.5541453    0.5541453    0.5722747    0.5722747    0.5779775
           0.5779775    0.5803335    0.5803335    0.5816670    0.5816670

           0.5849287    0.5849287    0.5885140    0.5885140    0.5895168
           0.5895168    0.5928394    0.5928394    0.6292083    0.6292083
           0.6430154    0.6430154    0.7114241    0.7114242    0.7307940
           0.7307940    0.7466339    0.7466340    0.7855556    0.7855556
           0.8005590    0.8005590    0.8746728    0.8746728    0.9190310
           0.9190310    0.9573236    0.9573236    1.2235782    1.2235782
           1.2577571    1.2577571    1.3453986    1.3453986    1.3477743
           1.3477743    1.4973454    1.4973454    1.5482647    1.5482647

           1.5957158    1.5957158    1.6963753    1.6963753    1.7635782
           1.7635782    1.7840604    1.7840604    1.8664396    1.8664396
           1.9323854    1.9323854    1.9408652    1.9408652    1.9909417
           1.9909417    2.0522605    2.0522605    2.1331653    2.1331653
           2.1833608    2.1833608    2.2358518    2.2358518    2.2553896
           2.2553896    2.3154163    2.3154163    2.3392908    2.3392908
           2.4205960    2.4205960    2.4638000    2.4638000    2.4711787
           2.4711787    2.5690918    2.5690918    2.6106455    2.6106455

           2.6804214    2.6804214    2.6974030    2.6974030    2.8237631
           2.8237631    2.9118465    2.9118465    2.9137812    2.9137812
           3.0101152    3.0101152    3.0635652    3.0635652    3.0744952
           3.0744952    3.0795282    3.0795282    3.1687606    3.1687606
           3.1704221    3.1704221    3.2205373    3.2205373    3.2455755
           3.2455755    3.2868441    3.2868441    3.3053901    3.3053901
           3.3437803    3.3437803    3.3824230    3.3824230    3.4162155
           3.4162155    3.4429961    3.4429961    3.4669766    3.4669766

           3.5036154    3.5036154    3.5465201    3.5465201    3.5550960
           3.5550960    3.6067652    3.6067652    3.6490614    3.6490614
           3.6785691    3.6785691    3.7587962    3.7587962    3.7621665
           3.7621665    3.7942123    3.7942123    3.8067252    3.8067252
           3.8403495    3.8403495    3.8624352    3.8624352    3.9077463
           3.9077463    3.9109228    3.9109228    3.9202082    3.9202082
           3.9765053    3.9765053    4.0062567    4.0062567    4.0106416
           4.0106416    4.0257100    4.0257100    4.1057366    4.1057366

           4.1654770    4.1654770    4.2909696    4.2909696    4.3001225
           4.3001225    4.3580185    4.3580185    4.3950326    4.3950326
           4.4047686    4.4047686    4.4450605    4.4450605    4.4505724
           4.4505724    4.4976473    4.4976473
       ********************************************************

------- case.scf2 --------
:GMA  : POTENTIAL AND CHARGE CUT-OFF  12.00 Ry**.5




:POS001: at.nr.  -1 position = 0.00000 0.89750 0.25000  multiplicity =  2

       lmmax 16
       lm=   0 0  1 0  2 0  2 2  3 0  3 2  4 0  4 2  4 4  5 0  5 2  5 4  6 0  6 2  6 4  6 6
:FER gutzwiller fermi energy   0.58523
:EORB         -0.257099811
:SUM sum of gutz band energies        -11.873796937

:CHA001: total charge inside sphere   1 =     9.473239
:PCS001: partial charges sphere =  1 s,p,d,f,px,py,pz,d-z2,d-x2y2,d-xy,d-xz,d-yz 
:QTL001: 1.9428 5.0335 0.5414 1.9554 1.6744 1.6758 1.6833 0.1011 0.1020 0.1175 0.1029 0.1179

                      vxx         vyy         vzz       up to r

:VZZ001:             4.61941     2.90513    -7.52454       2.300

:CHA  : total charge inside unit cell =      13.000000

------- case.scfc --------

        1.ATOM      Pr1                  14 CORE STATES
       CORE-FORCE in mRy/a.u. = |F|      Fx             Fy             Fz
:FCO001:   1.ATOM    473.765844755059      0.000000000000      0.000000000000    473.765844755059

:1S 001: 1S               -3067.044643518 Ry
:2S 001: 2S                -492.797952725 Ry
:2PP001: 2P*               -465.897037052 Ry
:2P 001: 2P                -430.499567420 Ry
:3S 001: 3S                -105.888130737 Ry
:3PP001: 3P*                -94.425958549 Ry
:3P 001: 3P                 -87.418147641 Ry
:3DD001: 3D*                -67.345153719 Ry
:3D 001: 3D                 -65.833595608 Ry
:4S 001: 4S                 -20.566955538 Ry
:4PP001: 4P*                -16.273815230 Ry
:4P 001: 4P                 -14.746534544 Ry
:4DD001: 4D*                 -7.679615958 Ry
:4D 001: 4D                  -7.410243969 Ry

------- case.scfm --------
:CINT001 Core Integral Atom   1   45.998494

       DENSITY AT NUCLEUS
        JATOM        VALENCE       SEMI-CORE          CORE           TOTAL
:RTO001:   1      649.414157        0.000000   656824.303180   657473.717337
     
       CHARGES OF NEW CHARGE DENSITY
:NTO   : INTERSTITIAL CHARGE =     7.054064
:NPC   : PW Pseudocharge     =    16.949399
:NTO001: CHARGE SPHERE  1    =    55.471733

:NEC01: NUCLEAR AND ELECTRONIC CHARGE    118.00000   117.99753
     
       CHARGES OF OLD CHARGE DENSITY
:OTO   : INTERSTITIAL CHARGE =     7.026031
:OPC   : PW Pseudocharge     =    16.944085
:OTO001: CHARGE SPHERE  1    =    55.486985

:NEC02: NUCLEAR AND ELECTRONIC CHARGE    118.00000   118.00000
     
       CONVERGENCE TEST
:DTO001: DIFFERENCE IN SPHERE  1 =  0.0246820

:DIS  :  CHARGE DISTANCE       ( 0.0246820 for atom    1 spin 1)      0.0246820
 PW Mixed is          533
 
******************************************************
* MULTISECANT MIXING VER9 RELEASE 10.4.0              *
* Standard Mode with controls                        *
* Fixed density scale                                *
* Regularization       1.000E-04                     *
* Trust Upper Limit    5.000E+00                     *
* Max Number of Memory Steps    8                    *
******************************************************
 
:INFO : Forcing a restart
:PWTMP   4.1634E+02  1.9467E+02  5.1827E+02
:PLANE:  PW TOTAL      4.4817 DISTAN   4.28E-03  9.55E-02 %
:CHARG:  CLM/ATOM   1381.9530 DISTAN   3.63E-02  2.63E-03 %
 
Step History
        DMIX         DMIXT        Red     Pred      Trust     Lambda    MagRel    MagAbs     Beta
  1   3.5000E-02   3.5000E-02 -1.00E+00  1.00E+00 -1.00E+01  1.00E+00  3.50E-02  3.50E-02  1.00E+00
:INFO :  Note, Pratt in use
:TRUST:  Step 2.25E-01  Charge 7.50E-02 (e) CTO  2.50E-01 (e) PW  3.50E-01 (e)
:DIRM :  MEMORY  0/ 8 SCALE   1.000
Performing Pseudo Compensation
Final Pseudo Compensation Rescaling     1.00000E+00
:MIX  :   PRATT  REGULARIZATION:  1.00E-04 GREED: 0.15000                  
     
       CHARGES OF MIXED CHARGE DENSITY
:CTO   : INTERSTITIAL CHARGE =     7.030607
:CPC   : PW Pseudocharge     =    16.948817
:CTO001: CHARGE SPHERE  1    =    55.484697

:NEC03: NUCLEAR AND ELECTRONIC CHARGE    118.00000   118.00000

PW CHANGE     H    K    L      Current       Change    Residue
:PTO001:      0    0    0  4.62680343E-02  1.796E-05  8.057E-05
:PTO003:      0    2    0  1.31629736E-02  6.691E-07 -1.200E-05
:PTO004:     -1    1    0  6.56611196E-02  1.504E-05  1.332E-05
:PTO005:      0    2   -1 -7.67262301E-02 -1.716E-05 -1.173E-05
:PTO006:      0    0   -2 -3.97325625E-02 -1.105E-05 -2.031E-05
:PTO007:     -1    1   -1 -8.40479964E-02 -2.413E-05 -4.280E-05
:PTO008:      0    2   -2 -1.41666539E-02 -3.284E-06 -2.527E-09
:PTO009:     -1    1   -2 -7.29730362E-02 -1.784E-05 -4.185E-06
:PTO011:     -1    3    0 -1.22271531E-02 -5.387E-06 -1.556E-05
:PTO012:     -1    3   -1 -5.55458755E-02 -1.467E-05 -1.917E-06
:PTO013:      0    4    0 -1.03601006E-02 -3.617E-06 -5.284E-06
:PTO014:      0    2   -3  2.35454438E-02  6.553E-06  1.149E-06

:ENE  : ********** TOTAL ENERGY IN Ry =       -36944.22544157

       TOTAL FORCE IN mRy/a.u. = |F|     Fx             Fy             Fz     with/without FOR in case.in2
:FOR001:   1.ATOM         18.043          0.000          0.000        -18.043 partial forces
       TOTAL FORCE WITH RESPECT TO GLOBAL CARTESIAN COORDINATES:
:FCA001:   1.ATOM                         0.000        -18.043          0.000 partial forces
       TOTAL FORCE WITH RESPECT TO THE GLOBAL COORDINATE SYSTEM:
:FGL001:   1.ATOM                 0.000000000   -18.042930468     0.000000000 partial forces

------- case.scf0 --------
 Flat Integration
 New Mode for Coulomb Integral
 Consistent 3/8+Simpson combinations
 Extension of core to zero
 LDM version in phi
 Fifth-order quadrature in outwin


            ---------
:ITE064: 64. ITERATION
            ---------

:NATO :    1 INDEPENDENT AND    2 TOTAL ATOMS IN UNITCELL
       SUBSTANCE: aU                                                          

       LATTICE                      = CXY 
:POT  : POTENTIAL OPTION EX_LDA EC_LDA VX_LDA VC_LDA
:LAT  : LATTICE CONSTANTS=  6.63103 13.45604 11.61688    1.571    1.571    1.571
:VOL  : UNIT CELL VOLUME =     518.27193
       MODE OF CALCULATION IS       = RELA
       NON-SPINPOLARIZED CALCULATION
:IFFT  : FFT-parameters:   54  108   96 Factor: 2.00


   CONVERGENCE PARAMETER FOR PSEUDOCHARGE: NCON=  9
   MAXIMAL VALUE OF RMT(JATOM)*ABSK(NKK) : RK  =27.59967


:VKCOUL :  VK-COUL convergence: 0.768E-07
       ATOMNUMBER=  1 Pr1        VCOUL-ZERO = -0.52527E-02
:EFG001:                        EFG         =    -7.36819   *10**21  V / m**2
                               V20  TOT/SRF=    -6.38104    -0.02269
                               V22  TOT/SRF=     0.84795     0.00292
                               V22M TOT/SRF=     0.00000     0.00000
                               V21  TOT/SRF=     0.00000     0.00000
                               V21M TOT/SRF=     0.00000     0.00000

              4.53204    0.00000    0.00000        4.53204    0.00000    0.00000
              0.00000    2.83615    0.00000        0.00000    2.83615    0.00000
              0.00000    0.00000   -7.36819        0.00000    0.00000   -7.36819

         MAIN DIRECTIONS OF THE EFG   1.0000  0.0000  0.0000
                                      0.0000  1.0000  0.0000
                                      0.0000  0.0000  1.0000
:ANG001:  ANGLE WITH OLD X-AXIS =         0.0

:ETA001:                         ASYMM. ETA =     0.23016


     HELLMANN-FEYNMAN-FORCE IN mRy/a.u. = |F|  Fx       Fy             Fz
:FHF001:   1.ATOM    488.535343626197      0.000000000000      0.000000000000   -488.535343626197

:FIT001: LUSE= 13 SIGMA OF V-XC FIT FOR ATOM  1  0.8275811E-05
:FIT001: LUSE= 13 SIGMA OF V-XC FIT FOR ATOM  1  0.8275811E-05
:DEN  : DENSITY INTEGRAL  =        -14139.61801776   (Ry)
       ELS_POTENTIAL_AT Z=0 and Z=0.5:   0.68276   0.68276
       ELS_POTENTIAL_AT Y=0 and Y=0.5:   0.07410   0.07410
:VZERO:v0,v0c,v0x   0.12662   0.68276  -0.55614 v5,v5c,v5x   0.12662   0.68276  -0.55614
:VZERY:v0,v0c,v0x  -0.66989   0.07410  -0.74399 v5,v5c,v5x  -0.66989   0.07410  -0.74399
:VZERX:v0,v0c,v0x  -1.08964  -0.37285  -0.71679 v5,v5c,v5x  -1.08964  -0.37285  -0.71679

------- case.scf1 --------
:LMAX-WF:   10   Non-Spherical LMAX:   4

          ATOMIC SPHERE DEPENDENT PARAMETERS FOR ATOM  Pr1       
:e__0001: OVERALL ENERGY PARAMETER IS    0.3688
          OVERALL BASIS SET ON ATOM IS LAPW
:E0_0001: E( 0)=    0.3688
             APW+lo
:E0_0001: E( 0)=   -2.1176   E(BOTTOM)=   -2.752   E(TOP)=   -1.483  4  5   171
             LOCAL ORBITAL
:E1_0001: E( 1)=    0.7688
             APW+lo
:E1_0001: E( 1)=   -0.6471   E(BOTTOM)=   -1.604   E(TOP)=    0.309  3  4   200
             LOCAL ORBITAL
:E3_0001: E( 3)=    0.5351   E(BOTTOM)=    0.328   E(TOP)=    0.742  0  1   124
             APW+lo
:E2_0001: E( 2)=    0.3688   E(BOTTOM)=    0.138   E(TOP)= -200.000  2 -1    95
             APW+lo

       K=   0.06250   0.00000   0.06250            1
:RKM  : MATRIX SIZE   473LOs:  40  RKM= 8.48  WEIGHT= 4.00  PGR:    
       EIGENVALUES ARE:
:EIG00001:      -2.0844255   -2.0740169   -0.7992271   -0.7378102   -0.7240961
:EIG00006:      -0.7194467   -0.7140708   -0.7138001    0.3334044    0.4749290
:EIG00011:       0.5499010    0.5503966    0.5504299    0.5537638    0.5559024
:EIG00016:       0.5639935    0.5684549    0.5686727    0.5711622    0.5730936
:EIG00021:       0.5767645    0.5795536    0.5804223    0.5834575    0.6279553
:EIG00026:       0.6426960    0.7114878    0.7314234    0.7450260    0.7846160
:EIG00031:       0.8000900    0.8743442    0.9181350    0.9565479    1.2230997
:EIG00036:       1.2573133    1.3452993    1.3475483    1.4977122    1.5487720
:EIG00041:       1.5955641    1.6981603    1.7645751    1.7826543    1.8655363
:EIG00046:       1.9327894    1.9428786    1.9893840    2.0515593    2.1332832
 
:EIG00051:       2.1834931    2.2384317    2.2531872    2.3141361    2.3378294
:EIG00056:       2.4205679    2.4657461    2.4682176    2.5688699    2.6106282
:EIG00061:       2.6767700    2.6969114    2.8235925    2.9119354    2.9132914
:EIG00066:       3.0101565    3.0635559    3.0739588    3.0792845    3.1687536
:EIG00071:       3.1701015    3.2204505    3.2454388    3.2872729    3.3045003
:EIG00076:       3.3434234    3.3810289    3.4160302    3.4429017    3.4664561
:EIG00081:       3.5033404    3.5465793    3.5548961    3.6064458    3.6490143
:EIG00086:       3.6785249    3.7586991    3.7622636    3.7942567    3.8065978
:EIG00091:       3.8403852    3.8623296    3.9079906    3.9108560    3.9199973
:EIG00096:       3.9765257    4.0077170    4.0090158    4.0256972    4.1057717
 
:EIG00101:       4.1655048    4.2932932    4.2983647    4.3571857    4.3951333
:EIG00106:       4.4044944    4.4454842    4.4492877    4.4974171    4.5285772
:EIG00111:       4.6098007    4.6113890    4.6485560    4.6590179    4.7127921
:EIG00116:       4.7594791    4.8347518    4.8531259    4.8745150    4.9017713
:EIG00121:       4.9206411    5.0113623    5.0329937    5.0636530    5.1095579
:EIG00126:       5.1919959    5.1979466    5.2386080    5.2841483    5.3125409
:EIG00131:       5.3229850    5.3833207    5.4155812    5.4217916    5.4426317
:EIG00136:       5.5066412    5.5481786    5.5960291    5.6104347    5.6385219
:EIG00141:       5.6519608    5.6616821    5.7089648    5.7557413    5.7890195
:EIG00146:       5.8010122    5.8144382    5.8150404    5.8299093    5.9244694
 
:EIG00151:       5.9528950    5.9654092    6.0467423    6.0657936    6.1039209
:EIG00156:       6.2053296    6.2896648    6.3172135    6.3534303    6.3567430
:EIG00161:       6.4135358    6.4651154    6.5098838    6.5209872    6.5279964
:EIG00166:       6.5996776    6.6215851    6.6308319    6.6631461    6.6991306
:EIG00171:       6.7157147    6.7781782    6.8135308    6.8171331    6.8775387
:EIG00176:       6.8902184    6.9094272    6.9593383    6.9620888    7.0000427
:EIG00181:       7.0636465    7.0773468    7.0845349    7.1049377    7.1550133
:EIG00186:       7.1680689    7.1727886    7.2679819    7.2826336    7.2853884
:EIG00191:       7.3296810    7.3454230    7.3999712    7.4072899    7.4400529
:EIG00196:       7.4452406    7.4615028    7.4885388    7.4979839    7.5453305
 
:EIG00201:       7.5512103    7.6095563    7.6195235    7.6377295    7.7025202
:EIG00206:       7.7025970    7.7154273    7.7699168    7.8024384    7.8226504
:EIG00211:       7.8334085    7.8817706    7.8907231    7.9034325    7.9120493
:EIG00216:       7.9563272    7.9641069    7.9659780    7.9875493    8.0284608
:EIG00221:       8.0482399
       ********************************************************

:KPT   :      NUMBER OF K-POINTS:   288

------- case.scfso --------
   0.0   0.0 angle (M,z), angle (M,x) deg
 
        SPIN-ORBIT EIGENVALUES:
     K=   0.06250   0.00000   0.06250            1
      MATRIX SIZE=  442   WEIGHT= 4.00
     EIGENVALUES ARE:
          -2.0844256   -2.0844256   -2.0740170   -2.0740170   -0.8968291
          -0.8968291   -0.8666637   -0.8666637   -0.7084827   -0.7084827
          -0.6562949   -0.6562949   -0.6536476   -0.6536476   -0.6472398
          -0.6472398    0.3334331    0.3334331    0.4747875    0.4747876
           0.5418195    0.5418195    0.5441585    0.5441585    0.5455168
           0.5455168    0.5467312    0.5467312    0.5487851    0.5487851
           0.5512959    0.5512959    0.5697074    0.5697075    0.5752171
           0.5752171    0.5775222    0.5775222    0.5789053    0.5789053

           0.5821665    0.5821665    0.5857182    0.5857182    0.5867179
           0.5867179    0.5899930    0.5899930    0.6283163    0.6283163
           0.6424712    0.6424712    0.7109332    0.7109333    0.7303791
           0.7303791    0.7462064    0.7462064    0.7851367    0.7851367
           0.8000921    0.8000921    0.8741560    0.8741560    0.9184377
           0.9184377    0.9566842    0.9566842    1.2230565    1.2230565
           1.2575641    1.2575641    1.3452133    1.3452133    1.3476414
           1.3476414    1.4972467    1.4972467    1.5481623    1.5481623

           1.5955130    1.5955130    1.6961701    1.6961701    1.7633542
           1.7633542    1.7838243    1.7838243    1.8660678    1.8660678
           1.9321713    1.9321713    1.9407478    1.9407478    1.9907144
           1.9907144    2.0520858    2.0520858    2.1328209    2.1328209
           2.1831337    2.1831337    2.2356597    2.2356597    2.2552055
           2.2552055    2.3151202    2.3151202    2.3389848    2.3389848
           2.4204445    2.4204445    2.4636151    2.4636151    2.4708170
           2.4708170    2.5688995    2.5688995    2.6103459    2.6103459

           2.6800746    2.6800746    2.6972919    2.6972919    2.8235082
           2.8235082    2.9117032    2.9117032    2.9137415    2.9137415
           3.0099846    3.0099846    3.0633417    3.0633417    3.0743491
           3.0743491    3.0792254    3.0792254    3.1686896    3.1686896
           3.1704346    3.1704346    3.2204818    3.2204818    3.2454909
           3.2454909    3.2866951    3.2866951    3.3052969    3.3052969
           3.3435918    3.3435918    3.3823749    3.3823749    3.4161065
           3.4161065    3.4429503    3.4429503    3.4668489    3.4668489

           3.5035371    3.5035371    3.5465941    3.5465941    3.5550517
           3.5550517    3.6066032    3.6066032    3.6490557    3.6490557
           3.6786375    3.6786375    3.7588045    3.7588045    3.7622617
           3.7622617    3.7942523    3.7942523    3.8066507    3.8066507
           3.8404015    3.8404015    3.8623787    3.8623787    3.9077924
           3.9077924    3.9107754    3.9107754    3.9200366    3.9200366
           3.9765392    3.9765392    4.0062532    4.0062532    4.0106076
           4.0106076    4.0257750    4.0257750    4.1058177    4.1058177

           4.1653444    4.1653444    4.2909420    4.2909420    4.3000216
           4.3000216    4.3580144    4.3580144    4.3950598    4.3950598
           4.4047840    4.4047840    4.4450739    4.4450739    4.4505707
           4.4505707    4.4976347    4.4976347
       ********************************************************

------- case.scf2 --------
:GMA  : POTENTIAL AND CHARGE CUT-OFF  12.00 Ry**.5




:POS001: at.nr.  -1 position = 0.00000 0.89750 0.25000  multiplicity =  2

       lmmax 16
       lm=   0 0  1 0  2 0  2 2  3 0  3 2  4 0  4 2  4 4  5 0  5 2  5 4  6 0  6 2  6 4  6 6
:FER gutzwiller fermi energy   0.58487
:EORB         -0.267300681
:SUM sum of gutz band energies        -11.897070168

:CHA001: total charge inside sphere   1 =     9.477575
:PCS001: partial charges sphere =  1 s,p,d,f,px,py,pz,d-z2,d-x2y2,d-xy,d-xz,d-yz 
:QTL001: 1.9429 5.0345 0.5414 1.9586 1.6747 1.6761 1.6836 0.1010 0.1021 0.1175 0.1029 0.1179

                      vxx         vyy         vzz       up to r

:VZZ001:             4.59529     2.87382    -7.46911       2.300

:CHA  : total charge inside unit cell =      13.000000

------- case.scfc --------

        1.ATOM      Pr1                  14 CORE STATES
       CORE-FORCE in mRy/a.u. = |F|      Fx             Fy             Fz
:FCO001:   1.ATOM    469.730298577817      0.000000000000      0.000000000000    469.730298577817

:1S 001: 1S               -3067.049815623 Ry
:2S 001: 2S                -492.803148746 Ry
:2PP001: 2P*               -465.902227564 Ry
:2P 001: 2P                -430.504759842 Ry
:3S 001: 3S                -105.893245909 Ry
:3PP001: 3P*                -94.431082614 Ry
:3P 001: 3P                 -87.423253780 Ry
:3DD001: 3D*                -67.350290957 Ry
:3D 001: 3D                 -65.838728612 Ry
:4S 001: 4S                 -20.571059022 Ry
:4PP001: 4P*                -16.277853313 Ry
:4P 001: 4P                 -14.750472045 Ry
:4DD001: 4D*                 -7.683372997 Ry
:4D 001: 4D                  -7.413966475 Ry

------- case.scfm --------
:CINT001 Core Integral Atom   1   45.998496

       DENSITY AT NUCLEUS
        JATOM        VALENCE       SEMI-CORE          CORE           TOTAL
:RTO001:   1      649.636382        0.000000   656824.510386   657474.146768
     
       CHARGES OF NEW CHARGE DENSITY
:NTO   : INTERSTITIAL CHARGE =     7.045494
:NPC   : PW Pseudocharge     =    16.949036
:NTO001: CHARGE SPHERE  1    =    55.476072

:NEC01: NUCLEAR AND ELECTRONIC CHARGE    118.00000   117.99764
     
       CHARGES OF OLD CHARGE DENSITY
:OTO   : INTERSTITIAL CHARGE =     7.030607
:OPC   : PW Pseudocharge     =    16.948817
:OTO001: CHARGE SPHERE  1    =    55.484697

:NEC02: NUCLEAR AND ELECTRONIC CHARGE    118.00000   118.00000
     
       CONVERGENCE TEST
:DTO001: DIFFERENCE IN SPHERE  1 =  0.0145093

:DIS  :  CHARGE DISTANCE       ( 0.0145093 for atom    1 spin 1)      0.0145093
 PW Mixed is          533
 
******************************************************
* MULTISECANT MIXING VER9 RELEASE 10.4.0              *
* Standard Mode with controls                        *
* Fixed density scale                                *
* Restart from converged density                     *
* Regularization       1.000E-04                     *
* Trust Upper Limit    5.000E+00                     *
* Max Number of Memory Steps    8                    *
******************************************************
 
:INFO : Forcing a restart
:PWTMP   4.1634E+02  1.9467E+02  5.1827E+02
:PLANE:  PW TOTAL      4.4830 DISTAN   2.45E-03  5.46E-02 %
:CHARG:  CLM/ATOM   1381.9528 DISTAN   2.17E-02  1.57E-03 %
 
Step History
        DMIX         DMIXT        Red     Pred      Trust     Lambda    MagRel    MagAbs     Beta
  1   3.5000E-02   3.5000E-02 -1.00E+00  1.00E+00 -1.00E+01  1.00E+00  3.50E-02  3.50E-02  1.00E+00
  2   1.5000E-01   1.5000E-01 -1.00E+00  1.00E+00 -1.00E+01  1.00E+00  1.50E-01  5.49E-03  1.00E+00
:JACOBIANS    3.778E-03   1.532E-01
  
:NORMS:  1/Froebius, Min, Max, Used   0.1129E+00  0.1129E+00  0.3089E+00  0.1129E+00
:INFO :  Number of Memory Steps    1 Skipping    0
:PREDicted Charge, CTotal, PW Trust    4.669E-03   9.338E-03   7.135E-03
:PREDicted DMix, Beta, BLim   5.0000E-02  2.0408E+00  1.8593E+00

Eigenvalues, unscaled except for SY+YY
   #     SY Real        SY Imag          SS             YY         SY+YY Real      SY+YY Imag
   1   3.089450E-01   0.000000E+00   1.129381E-01   1.000000E+00   1.308945E+00   0.000000E+00
 
:BLIM :  VZERO Control Off
:TRUST:  Step 3.00E+00  Charge 7.50E-02 (e) CTO  2.50E-01 (e) PW  3.50E-01 (e)
:DIRM :  MEMORY  1/8  SCALE   1.000 RED  0.60 PRED  1.00 NEXT  0.61 
:TRAVE:  Charge 2.50E-03 (e) CTO  5.01E-03 (e) PW  3.74E-03 (e)
:DIRP :  |MSR1|= 1.438E-03 |PRATT|= 2.446E-03 ANGLE=  33.4 DEGREES
:DIRQ :  |MSR1|= 6.077E-03 |PRATT|= 2.173E-02 ANGLE=   7.8 DEGREES
:DIRT :  |MSR1|= 6.245E-03 |PRATT|= 2.187E-02 ANGLE=  11.6 DEGREES
:MIX  :   MSR1   REGULARIZATION:  1.00E-04 GREED: 0.07125  Newton 1.00  0.2856                
     
       CHARGES OF MIXED CHARGE DENSITY
:CTO   : INTERSTITIAL CHARGE =     7.035615
:CPC   : PW Pseudocharge     =    16.953767
:CTO001: CHARGE SPHERE  1    =    55.482192

:NEC03: NUCLEAR AND ELECTRONIC CHARGE    118.00000   118.00000

PW CHANGE     H    K    L      Current       Change    Residue
:PTO001:      0    0    0  4.62872483E-02  1.921E-05  4.467E-05
:PTO003:      0    2    0  1.31639442E-02  9.707E-07 -4.233E-06
:PTO004:     -1    1    0  6.56770257E-02  1.591E-05  8.556E-06
:PTO005:      0    2   -1 -7.67443293E-02 -1.810E-05 -7.639E-06
:PTO006:      0    0   -2 -3.97442628E-02 -1.170E-05 -1.173E-05
:PTO007:     -1    1   -1 -8.40729463E-02 -2.495E-05 -2.071E-05
:PTO008:      0    2   -2 -1.41701742E-02 -3.520E-06 -7.031E-07
:PTO009:     -1    1   -2 -7.29906070E-02 -1.757E-05  4.692E-06
:PTO011:     -1    3    0 -1.22328970E-02 -5.744E-06 -8.875E-06
:PTO012:     -1    3   -1 -5.55617929E-02 -1.592E-05 -5.461E-06
:PTO013:      0    4    0 -1.03642111E-02 -4.110E-06 -5.073E-06
:PTO014:      0    2   -3  2.35525972E-02  7.153E-06  2.877E-06

:ENE  : ********** TOTAL ENERGY IN Ry =       -36944.22565779

       TOTAL FORCE IN mRy/a.u. = |F|     Fx             Fy             Fz     with/without FOR in case.in2
:FOR001:   1.ATOM         18.805          0.000          0.000        -18.805 partial forces
       TOTAL FORCE WITH RESPECT TO GLOBAL CARTESIAN COORDINATES:
:FCA001:   1.ATOM                         0.000        -18.805          0.000 partial forces
       TOTAL FORCE WITH RESPECT TO THE GLOBAL COORDINATE SYSTEM:
:FGL001:   1.ATOM                 0.000000000   -18.805045048     0.000000000 partial forces

------- case.scf0 --------
 Flat Integration
 New Mode for Coulomb Integral
 Consistent 3/8+Simpson combinations
 Extension of core to zero
 LDM version in phi
 Fifth-order quadrature in outwin


            ---------
:ITE065: 65. ITERATION
            ---------

:NATO :    1 INDEPENDENT AND    2 TOTAL ATOMS IN UNITCELL
       SUBSTANCE: aU                                                          

       LATTICE                      = CXY 
:POT  : POTENTIAL OPTION EX_LDA EC_LDA VX_LDA VC_LDA
:LAT  : LATTICE CONSTANTS=  6.63103 13.45604 11.61688    1.571    1.571    1.571
:VOL  : UNIT CELL VOLUME =     518.27193
       MODE OF CALCULATION IS       = RELA
       NON-SPINPOLARIZED CALCULATION
:IFFT  : FFT-parameters:   54  108   96 Factor: 2.00


   CONVERGENCE PARAMETER FOR PSEUDOCHARGE: NCON=  9
   MAXIMAL VALUE OF RMT(JATOM)*ABSK(NKK) : RK  =27.59967


:VKCOUL :  VK-COUL convergence: 0.770E-07
       ATOMNUMBER=  1 Pr1        VCOUL-ZERO = -0.54110E-02
:EFG001:                        EFG         =    -7.40443   *10**21  V / m**2
                               V20  TOT/SRF=    -6.41243    -0.02285
                               V22  TOT/SRF=     0.85157     0.00293
                               V22M TOT/SRF=     0.00000     0.00000
                               V21  TOT/SRF=     0.00000     0.00000
                               V21M TOT/SRF=     0.00000     0.00000

              4.55379    0.00000    0.00000        4.55379    0.00000    0.00000
              0.00000    2.85064    0.00000        0.00000    2.85064    0.00000
              0.00000    0.00000   -7.40443        0.00000    0.00000   -7.40443

         MAIN DIRECTIONS OF THE EFG   1.0000  0.0000  0.0000
                                      0.0000  1.0000  0.0000
                                      0.0000  0.0000  1.0000
:ANG001:  ANGLE WITH OLD X-AXIS =         0.0

:ETA001:                         ASYMM. ETA =     0.23002


     HELLMANN-FEYNMAN-FORCE IN mRy/a.u. = |F|  Fx       Fy             Fz
:FHF001:   1.ATOM    482.690363979912      0.000000000000      0.000000000000   -482.690363979912

:FIT001: LUSE= 13 SIGMA OF V-XC FIT FOR ATOM  1  0.8201067E-05
:FIT001: LUSE= 13 SIGMA OF V-XC FIT FOR ATOM  1  0.8201067E-05
:DEN  : DENSITY INTEGRAL  =        -14139.13142373   (Ry)
       ELS_POTENTIAL_AT Z=0 and Z=0.5:   0.68315   0.68315
       ELS_POTENTIAL_AT Y=0 and Y=0.5:   0.07397   0.07397
:VZERO:v0,v0c,v0x   0.12687   0.68315  -0.55628 v5,v5c,v5x   0.12687   0.68315  -0.55628
:VZERY:v0,v0c,v0x  -0.67011   0.07397  -0.74409 v5,v5c,v5x  -0.67011   0.07397  -0.74409
:VZERX:v0,v0c,v0x  -1.08994  -0.37301  -0.71693 v5,v5c,v5x  -1.08994  -0.37301  -0.71693

------- case.scf1 --------
:LMAX-WF:   10   Non-Spherical LMAX:   4

          ATOMIC SPHERE DEPENDENT PARAMETERS FOR ATOM  Pr1       
:e__0001: OVERALL ENERGY PARAMETER IS    0.3688
          OVERALL BASIS SET ON ATOM IS LAPW
:E0_0001: E( 0)=    0.3688
             APW+lo
:E0_0001: E( 0)=   -2.1194   E(BOTTOM)=   -2.754   E(TOP)=   -1.485  4  5   169
             LOCAL ORBITAL
:E1_0001: E( 1)=    0.7688
             APW+lo
:E1_0001: E( 1)=   -0.6488   E(BOTTOM)=   -1.605   E(TOP)=    0.307  3  4   192
             LOCAL ORBITAL
:E3_0001: E( 3)=    0.5319   E(BOTTOM)=    0.325   E(TOP)=    0.739  0  1   122
             APW+lo
:E2_0001: E( 2)=    0.3688   E(BOTTOM)=    0.137   E(TOP)= -200.000  2 -1    96
             APW+lo

       K=   0.06250   0.00000   0.06250            1
:RKM  : MATRIX SIZE   473LOs:  40  RKM= 8.48  WEIGHT= 4.00  PGR:    
       EIGENVALUES ARE:
:EIG00001:      -2.0861470   -2.0757599   -0.8004437   -0.7390963   -0.7254081
:EIG00006:      -0.7208279   -0.7154471   -0.7151914    0.3333921    0.4747514
:EIG00011:       0.5471459    0.5475278    0.5475855    0.5508969    0.5530465
:EIG00016:       0.5609226    0.5653654    0.5656051    0.5680778    0.5700719
:EIG00021:       0.5736337    0.5764816    0.5773185    0.5803347    0.6270763
:EIG00026:       0.6421386    0.7109923    0.7309614    0.7445585    0.7841564
:EIG00031:       0.7995800    0.8737822    0.9174868    0.9558494    1.2225283
:EIG00036:       1.2571048    1.3450956    1.3474059    1.4976050    1.5486613
:EIG00041:       1.5953416    1.6979397    1.7643276    1.7823927    1.8651270
:EIG00046:       1.9325466    1.9427659    1.9891250    2.0513718    2.1329026
 
:EIG00051:       2.1832414    2.2382179    2.2529881    2.3137953    2.3375002
:EIG00056:       2.4204063    2.4656522    2.4677050    2.5686590    2.6103023
:EIG00061:       2.6763824    2.6967936    2.8233125    2.9117371    2.9132851
:EIG00066:       3.0100145    3.0633066    3.0738034    3.0789499    3.1686525
:EIG00071:       3.1701339    3.2203873    3.2453440    3.2871060    3.3044005
:EIG00076:       3.3432156    3.3809753    3.4159096    3.4428519    3.4663138
:EIG00081:       3.5032534    3.5466555    3.5548470    3.6062697    3.6490061
:EIG00086:       3.6785954    3.7587052    3.7623648    3.7942985    3.8065131
:EIG00091:       3.8404396    3.8622666    3.9080534    3.9106787    3.9198077
:EIG00096:       3.9765609    4.0077466    4.0089415    4.0257654    4.1058563
 
:EIG00101:       4.1653581    4.2933013    4.2982061    4.3571808    4.3951623
:EIG00106:       4.4045074    4.4454969    4.4492818    4.4974016    4.5286290
:EIG00111:       4.6098919    4.6112290    4.6487136    4.6588868    4.7127364
:EIG00116:       4.7593539    4.8345633    4.8531896    4.8742986    4.9015529
:EIG00121:       4.9205938    5.0113386    5.0328256    5.0636352    5.1095451
:EIG00126:       5.1919428    5.1977694    5.2385182    5.2840989    5.3124246
:EIG00131:       5.3230183    5.3833009    5.4155323    5.4217915    5.4425713
:EIG00136:       5.5066655    5.5481778    5.5960766    5.6103714    5.6384891
:EIG00141:       5.6518803    5.6615629    5.7089142    5.7558738    5.7887763
:EIG00146:       5.8010360    5.8145179    5.8151457    5.8298578    5.9245330
 
:EIG00151:       5.9527165    5.9655118    6.0467467    6.0658855    6.1037937
:EIG00156:       6.2053692    6.2896550    6.3172090    6.3533138    6.3567779
:EIG00161:       6.4133723    6.4651855    6.5098720    6.5208917    6.5278685
:EIG00166:       6.5996242    6.6215865    6.6308036    6.6631454    6.6990798
:EIG00171:       6.7156115    6.7781252    6.8134525    6.8170024    6.8774447
:EIG00176:       6.8899739    6.9093337    6.9591497    6.9620308    6.9999273
:EIG00181:       7.0635403    7.0773452    7.0844191    7.1049938    7.1550259
:EIG00186:       7.1681114    7.1726117    7.2679231    7.2825150    7.2853236
:EIG00191:       7.3297139    7.3454331    7.3999542    7.4073056    7.4400611
:EIG00196:       7.4452184    7.4615249    7.4884959    7.4979667    7.5452770
 
:EIG00201:       7.5512932    7.6096076    7.6196164    7.6376756    7.7024368
:EIG00206:       7.7025398    7.7153762    7.7699442    7.8024351    7.8226366
:EIG00211:       7.8334335    7.8817521    7.8907106    7.9034091    7.9120402
:EIG00216:       7.9563648    7.9640566    7.9659575    7.9875667    8.0285716
:EIG00221:       8.0483463
       ********************************************************

:KPT   :      NUMBER OF K-POINTS:   288

------- case.scfso --------
   0.0   0.0 angle (M,z), angle (M,x) deg
 
        SPIN-ORBIT EIGENVALUES:
     K=   0.06250   0.00000   0.06250            1
      MATRIX SIZE=  442   WEIGHT= 4.00
     EIGENVALUES ARE:
          -2.0861472   -2.0861472   -2.0757599   -2.0757599   -0.8981940
          -0.8981940   -0.8681016   -0.8681016   -0.7097012   -0.7097012
          -0.6576045   -0.6576045   -0.6549491   -0.6549491   -0.6485747
          -0.6485747    0.3334208    0.3334208    0.4746046    0.4746046
           0.5389473    0.5389473    0.5412182    0.5412182    0.5425838
           0.5425838    0.5437971    0.5437971    0.5458095    0.5458095
           0.5481948    0.5481948    0.5669002    0.5669002    0.5722098
           0.5722098    0.5744606    0.5744606    0.5758988    0.5758988

           0.5791508    0.5791508    0.5826661    0.5826661    0.5836701
           0.5836701    0.5868976    0.5868976    0.6273765    0.6273765
           0.6418926    0.6418926    0.7104077    0.7104078    0.7299262
           0.7299263    0.7457394    0.7457394    0.7846782    0.7846782
           0.7995817    0.7995817    0.8735933    0.8735933    0.9177908
           0.9177908    0.9559867    0.9559867    1.2224863    1.2224863
           1.2573544    1.2573544    1.3450117    1.3450117    1.3474962
           1.3474962    1.4971383    1.4971383    1.5480511    1.5480511

           1.5952907    1.5952907    1.6959460    1.6959460    1.7631071
           1.7631071    1.7835663    1.7835663    1.8656600    1.8656600
           1.9319362    1.9319362    1.9406182    1.9406182    1.9904636
           1.9904636    2.0518934    2.0518934    2.1324432    2.1324432
           2.1828822    2.1828822    2.2354485    2.2354485    2.2550030
           2.2550030    2.3147944    2.3147944    2.3386483    2.3386483
           2.4202763    2.4202763    2.4634015    2.4634015    2.4704298
           2.4704298    2.5686865    2.5686865    2.6100184    2.6100184

           2.6796954    2.6796954    2.6971681    2.6971681    2.8232286
           2.8232286    2.9115389    2.9115389    2.9137011    2.9137011
           3.0098410    3.0098410    3.0630951    3.0630951    3.0741898
           3.0741898    3.0788950    3.0788950    3.1686071    3.1686071
           3.1704481    3.1704481    3.2204189    3.2204189    3.2453960
           3.2453960    3.2865318    3.2865318    3.3051932    3.3051932
           3.3433840    3.3433840    3.3823209    3.3823209    3.4159859
           3.4159859    3.4428993    3.4428993    3.4667080    3.4667080

           3.5034503    3.5034503    3.5466701    3.5466701    3.5550018
           3.5550018    3.6064274    3.6064274    3.6490473    3.6490473
           3.6787080    3.6787080    3.7588108    3.7588108    3.7623624
           3.7623624    3.7942940    3.7942940    3.8065660    3.8065660
           3.8404558    3.8404558    3.8623156    3.8623156    3.9078375
           3.9078375    3.9106155    3.9106155    3.9198486    3.9198486
           3.9765741    3.9765741    4.0062459    4.0062459    4.0105693
           4.0105693    4.0258427    4.0258427    4.1059021    4.1059021

           4.1651983    4.1651983    4.2909080    4.2909080    4.2999103
           4.2999103    4.3580069    4.3580069    4.3950864    4.3950864
           4.4047976    4.4047976    4.4450855    4.4450855    4.4505670
           4.4505670    4.4976186    4.4976186
       ********************************************************

------- case.scf2 --------
:GMA  : POTENTIAL AND CHARGE CUT-OFF  12.00 Ry**.5




:POS001: at.nr.  -1 position = 0.00000 0.89750 0.25000  multiplicity =  2

       lmmax 16
       lm=   0 0  1 0  2 0  2 2  3 0  3 2  4 0  4 2  4 4  5 0  5 2  5 4  6 0  6 2  6 4  6 6
:FER gutzwiller fermi energy   0.58442
:EORB         -0.278137895
:SUM sum of gutz band energies        -11.922799296

:CHA001: total charge inside sphere   1 =     9.482776
:PCS001: partial charges sphere =  1 s,p,d,f,px,py,pz,d-z2,d-x2y2,d-xy,d-xz,d-yz 
:QTL001: 1.9430 5.0355 0.5412 1.9629 1.6751 1.6764 1.6839 0.1008 0.1022 0.1175 0.1028 0.1178

                      vxx         vyy         vzz       up to r

:VZZ001:             4.56251     2.83424    -7.39675       2.300

:CHA  : total charge inside unit cell =      13.000000

------- case.scfc --------

        1.ATOM      Pr1                  14 CORE STATES
       CORE-FORCE in mRy/a.u. = |F|      Fx             Fy             Fz
:FCO001:   1.ATOM    463.251366056444      0.000000000000      0.000000000000    463.251366056444

:1S 001: 1S               -3067.055042030 Ry
:2S 001: 2S                -492.808479212 Ry
:2PP001: 2P*               -465.907534706 Ry
:2P 001: 2P                -430.510075552 Ry
:3S 001: 3S                -105.898640127 Ry
:3PP001: 3P*                -94.436478203 Ry
:3P 001: 3P                 -87.428638245 Ry
:3DD001: 3D*                -67.355687074 Ry
:3D 001: 3D                 -65.844123069 Ry
:4S 001: 4S                 -20.575492532 Ry
:4PP001: 4P*                -16.282217577 Ry
:4P 001: 4P                 -14.754732253 Ry
:4DD001: 4D*                 -7.687441468 Ry
:4D 001: 4D                  -7.417998852 Ry

------- case.scfm --------
:CINT001 Core Integral Atom   1   45.998499

       DENSITY AT NUCLEUS
        JATOM        VALENCE       SEMI-CORE          CORE           TOTAL
:RTO001:   1      649.877057        0.000000   656824.694808   657474.571865
     
       CHARGES OF NEW CHARGE DENSITY
:NTO   : INTERSTITIAL CHARGE =     7.035029
:NPC   : PW Pseudocharge     =    16.948292
:NTO001: CHARGE SPHERE  1    =    55.481275

:NEC01: NUCLEAR AND ELECTRONIC CHARGE    118.00000   117.99758
     
       CHARGES OF OLD CHARGE DENSITY
:OTO   : INTERSTITIAL CHARGE =     7.035615
:OPC   : PW Pseudocharge     =    16.953767
:OTO001: CHARGE SPHERE  1    =    55.482192

:NEC02: NUCLEAR AND ELECTRONIC CHARGE    118.00000   118.00000
     
       CONVERGENCE TEST
:DTO001: DIFFERENCE IN SPHERE  1 =  0.0079006

:DIS  :  CHARGE DISTANCE       ( 0.0079006 for atom    1 spin 1)      0.0079006
 PW Mixed is          533
 
******************************************************
* MULTISECANT MIXING VER9 RELEASE 10.4.0              *
* Standard Mode with controls                        *
* Fixed density scale                                *
* Regularization       1.000E-04                     *
* Trust Upper Limit    5.000E+00                     *
* Max Number of Memory Steps    8                    *
******************************************************
 
:PWTMP   4.1634E+02  1.9467E+02  5.1827E+02
:PLANE:  PW TOTAL      4.4844 DISTAN   8.90E-04  1.98E-02 %
:CHARG:  CLM/ATOM   1381.9529 DISTAN   1.17E-02  8.48E-04 %
 
Step History
        DMIX         DMIXT        Red     Pred      Trust     Lambda    MagRel    MagAbs     Beta
  1   3.5000E-02   3.5000E-02 -1.00E+00  1.00E+00 -1.00E+01  1.00E+00  3.50E-02  3.50E-02  1.00E+00
  2   1.5000E-01   1.5000E-01  5.98E-01  1.00E+00 -1.00E+01  1.00E+00  1.50E-01  5.49E-03  1.00E+00
  3   7.1250E-02   7.1250E-02 -1.00E+00  6.07E-01  3.00E+00  1.00E+00  2.86E-01  6.24E-03  1.00E+00
:JACOBIANS    7.711E-03   4.424E-01
  
:NORMS:  1/Froebius, Min, Max, Used   0.3311E+00  0.3310E+00  0.3838E+00  0.3353E+00
:INFO :  Number of Memory Steps    2 Skipping    0
:INFO :  SLambda=    0.5518597805  Max    0.5518597805
:PREDicted Charge, CTotal, PW Trust    1.757E-03   3.514E-03   1.974E-03
:PREDicted DMix, Beta, BLim   3.4640E-01  9.4003E-01  8.7402E-01

Eigenvalues, unscaled except for SY+YY
   #     SY Real        SY Imag          SS             YY         SY+YY Real      SY+YY Imag
   1   5.972577E-01   0.000000E+00   2.190533E-01   1.999162E+00   2.328807E+00   0.000000E+00
   2   4.844777E-04   0.000000E+00   2.466550E-04   8.383391E-04   1.062395E-03   0.000000E+00
 
:INFO :  Singular value  2.329E+00 Weight  1.000E+00 Projection -2.042E-05
:INFO :  Singular value  1.062E-03 Weight  9.658E-01 Projection  3.828E-01
:RANK :  ACTIVE   1.97/2  =  98.29 % ; YY RANK   1.95/2  =  97.31 %
 
:DLIM :  Beta Active  9.550E-01
:BLIM :  VZERO Control Off
:TRUST:  Step 4.00E+00  Charge 7.50E-02 (e) CTO  2.50E-01 (e) PW  3.50E-01 (e)
:DIRM :  MEMORY  2/8  SCALE   1.000 RED  0.54 PRED  0.61 NEXT  0.25 BETA  0.96
:TRAVE:  Charge 1.60E-03 (e) CTO  3.19E-03 (e) PW  2.53E-03 (e)
:DIRP :  |MSR1|= 5.959E-04 |PRATT|= 8.896E-04 ANGLE=  76.8 DEGREES
:DIRQ :  |MSR1|= 5.909E-03 |PRATT|= 1.172E-02 ANGLE=  26.6 DEGREES
:DIRT :  |MSR1|= 5.939E-03 |PRATT|= 1.175E-02 ANGLE=  27.3 DEGREES
:MIX  :   MSD1   REGULARIZATION:  2.00E-04 GREED: 0.17813  Newton 1.00  0.5053                
     
       CHARGES OF MIXED CHARGE DENSITY
:CTO   : INTERSTITIAL CHARGE =     7.034243
:CPC   : PW Pseudocharge     =    16.951622
:CTO001: CHARGE SPHERE  1    =    55.482879

:NEC03: NUCLEAR AND ELECTRONIC CHARGE    118.00000   118.00000

PW CHANGE     H    K    L      Current       Change    Residue
:PTO001:      0    0    0  4.62804627E-02 -6.786E-06  4.223E-06
:PTO003:      0    2    0  1.31659460E-02  2.002E-06  4.522E-06
:PTO004:     -1    1    0  6.56724599E-02 -4.566E-06  5.194E-06
:PTO005:      0    2   -1 -7.67391132E-02  5.216E-06 -5.653E-06
:PTO006:      0    0   -2 -3.97405964E-02  3.666E-06 -3.233E-06
:PTO007:     -1    1   -1 -8.40606505E-02  1.230E-05  8.885E-07
:PTO008:      0    2   -2 -1.41691835E-02  9.907E-07 -1.639E-06
:PTO009:     -1    1   -2 -7.29760888E-02  1.452E-05  1.056E-05
:PTO011:     -1    3    0 -1.22308603E-02  2.037E-06 -1.471E-06
:PTO012:     -1    3   -1 -5.55599530E-02  1.840E-06 -1.072E-05
:PTO013:      0    4    0 -1.03649276E-02 -7.165E-07 -4.802E-06
:PTO014:      0    2   -3  2.35522889E-02 -3.083E-07  5.496E-06

:ENE  : ********** TOTAL ENERGY IN Ry =       -36944.22595826

       TOTAL FORCE IN mRy/a.u. = |F|     Fx             Fy             Fz     with/without FOR in case.in2
:FOR001:   1.ATOM         19.439          0.000          0.000        -19.439 partial forces
       TOTAL FORCE WITH RESPECT TO GLOBAL CARTESIAN COORDINATES:
:FCA001:   1.ATOM                         0.000        -19.439          0.000 partial forces
       TOTAL FORCE WITH RESPECT TO THE GLOBAL COORDINATE SYSTEM:
:FGL001:   1.ATOM                 0.000000000   -19.438997923     0.000000000 partial forces

------- case.scf0 --------
 Flat Integration
 New Mode for Coulomb Integral
 Consistent 3/8+Simpson combinations
 Extension of core to zero
 LDM version in phi
 Fifth-order quadrature in outwin


            ---------
:ITE066: 66. ITERATION
            ---------

:NATO :    1 INDEPENDENT AND    2 TOTAL ATOMS IN UNITCELL
       SUBSTANCE: aU                                                          

       LATTICE                      = CXY 
:POT  : POTENTIAL OPTION EX_LDA EC_LDA VX_LDA VC_LDA
:LAT  : LATTICE CONSTANTS=  6.63103 13.45604 11.61688    1.571    1.571    1.571
:VOL  : UNIT CELL VOLUME =     518.27193
       MODE OF CALCULATION IS       = RELA
       NON-SPINPOLARIZED CALCULATION
:IFFT  : FFT-parameters:   54  108   96 Factor: 2.00


   CONVERGENCE PARAMETER FOR PSEUDOCHARGE: NCON=  9
   MAXIMAL VALUE OF RMT(JATOM)*ABSK(NKK) : RK  =27.59967


:VKCOUL :  VK-COUL convergence: 0.771E-07
       ATOMNUMBER=  1 Pr1        VCOUL-ZERO = -0.53700E-02
:EFG001:                        EFG         =    -7.39337   *10**21  V / m**2
                               V20  TOT/SRF=    -6.40285    -0.02264
                               V22  TOT/SRF=     0.85898     0.00290
                               V22M TOT/SRF=     0.00000     0.00000
                               V21  TOT/SRF=     0.00000     0.00000
                               V21M TOT/SRF=     0.00000     0.00000

              4.55566    0.00000    0.00000        4.55566    0.00000    0.00000
              0.00000    2.83771    0.00000        0.00000    2.83771    0.00000
              0.00000    0.00000   -7.39337        0.00000    0.00000   -7.39337

         MAIN DIRECTIONS OF THE EFG   1.0000  0.0000  0.0000
                                      0.0000  1.0000  0.0000
                                      0.0000  0.0000  1.0000
:ANG001:  ANGLE WITH OLD X-AXIS =         0.0

:ETA001:                         ASYMM. ETA =     0.23236


     HELLMANN-FEYNMAN-FORCE IN mRy/a.u. = |F|  Fx       Fy             Fz
:FHF001:   1.ATOM    468.589076693331      0.000000000000      0.000000000000   -468.589076693331

:FIT001: LUSE= 13 SIGMA OF V-XC FIT FOR ATOM  1  0.8152138E-05
:FIT001: LUSE= 13 SIGMA OF V-XC FIT FOR ATOM  1  0.8152138E-05
:DEN  : DENSITY INTEGRAL  =        -14139.38136139   (Ry)
       ELS_POTENTIAL_AT Z=0 and Z=0.5:   0.68302   0.68302
       ELS_POTENTIAL_AT Y=0 and Y=0.5:   0.07404   0.07404
:VZERO:v0,v0c,v0x   0.12677   0.68302  -0.55625 v5,v5c,v5x   0.12677   0.68302  -0.55625
:VZERY:v0,v0c,v0x  -0.67002   0.07404  -0.74406 v5,v5c,v5x  -0.67002   0.07404  -0.74406
:VZERX:v0,v0c,v0x  -1.08984  -0.37293  -0.71690 v5,v5c,v5x  -1.08984  -0.37293  -0.71690

------- case.scf1 --------
:LMAX-WF:   10   Non-Spherical LMAX:   4

          ATOMIC SPHERE DEPENDENT PARAMETERS FOR ATOM  Pr1       
:e__0001: OVERALL ENERGY PARAMETER IS    0.3688
          OVERALL BASIS SET ON ATOM IS LAPW
:E0_0001: E( 0)=    0.3688
             APW+lo
:E0_0001: E( 0)=   -2.1189   E(BOTTOM)=   -2.753   E(TOP)=   -1.485  4  5   169
             LOCAL ORBITAL
:E1_0001: E( 1)=    0.7688
             APW+lo
:E1_0001: E( 1)=   -0.6483   E(BOTTOM)=   -1.604   E(TOP)=    0.308  3  4   194
             LOCAL ORBITAL
:E3_0001: E( 3)=    0.5329   E(BOTTOM)=    0.326   E(TOP)=    0.740  0  1   125
             APW+lo
:E2_0001: E( 2)=    0.3688   E(BOTTOM)=    0.138   E(TOP)= -200.000  2 -1    91
             APW+lo

       K=   0.06250   0.00000   0.06250            1
:RKM  : MATRIX SIZE   473LOs:  40  RKM= 8.48  WEIGHT= 4.00  PGR:    
       EIGENVALUES ARE:
:EIG00001:      -2.0856421   -2.0752490   -0.8000682   -0.7387261   -0.7250298
:EIG00006:      -0.7204232   -0.7150237   -0.7147844    0.3333783    0.4747910
:EIG00011:       0.5480178    0.5484579    0.5484890    0.5517995    0.5539722
:EIG00016:       0.5618966    0.5663553    0.5665950    0.5690700    0.5710497
:EIG00021:       0.5746456    0.5774464    0.5783034    0.5813498    0.6273488
:EIG00026:       0.6423012    0.7111355    0.7310936    0.7446998    0.7842838
:EIG00031:       0.7997243    0.8739613    0.9176873    0.9560664    1.2227006
:EIG00036:       1.2571609    1.3451515    1.3474363    1.4976310    1.5486963
:EIG00041:       1.5954012    1.6980036    1.7643857    1.7824706    1.8652425
:EIG00046:       1.9326129    1.9427942    1.9891887    2.0514222    2.1330132
 
:EIG00051:       2.1832965    2.2382743    2.2530366    2.3138907    2.3375821
:EIG00056:       2.4204386    2.4656622    2.4678539    2.5687063    2.6103990
:EIG00061:       2.6764973    2.6968159    2.8233903    2.9117894    2.9132774
:EIG00066:       3.0100509    3.0633796    3.0738452    3.0790535    3.1686731
:EIG00071:       3.1701142    3.2203948    3.2453611    3.2871562    3.3044223
:EIG00076:       3.3432696    3.3809889    3.4159402    3.4428631    3.4663492
:EIG00081:       3.5032789    3.5466083    3.5548582    3.6063290    3.6490008
:EIG00086:       3.6785552    3.7586914    3.7623222    3.7942768    3.8065242
:EIG00091:       3.8404126    3.8622821    3.9080200    3.9107285    3.9198661
:EIG00096:       3.9765436    4.0077263    4.0089535    4.0257285    4.1058096
 
:EIG00101:       4.1654003    4.2932840    4.2982503    4.3571650    4.3951414
:EIG00106:       4.4044918    4.4454786    4.4492756    4.4973964    4.5285921
:EIG00111:       4.6098478    4.6112688    4.6486489    4.6589180    4.7127573
:EIG00116:       4.7593791    4.8346121    4.8531542    4.8743532    4.9016102
:EIG00121:       4.9205983    5.0113382    5.0328728    5.0636297    5.1095361
:EIG00126:       5.1919461    5.1978153    5.2385352    5.2841050    5.3124507
:EIG00131:       5.3229967    5.3833026    5.4155347    5.4217806    5.4425731
:EIG00136:       5.5066408    5.5481677    5.5960490    5.6103727    5.6384845
:EIG00141:       5.6518978    5.6615786    5.7089175    5.7558070    5.7888320
:EIG00146:       5.8010144    5.8144812    5.8150920    5.8298674    5.9244972
 
:EIG00151:       5.9527580    5.9654595    6.0467325    6.0658385    6.1038198
:EIG00156:       6.2053434    6.2896447    6.3171954    6.3533350    6.3567506
:EIG00161:       6.4134085    6.4651465    6.5098646    6.5209050    6.5278957
:EIG00166:       6.5996191    6.6215720    6.6307975    6.6631333    6.6990816
:EIG00171:       6.7156322    6.7781212    6.8134568    6.8170265    6.8774568
:EIG00176:       6.8900312    6.9093401    6.9591917    6.9620340    6.9999512
:EIG00181:       7.0635579    7.0773299    7.0844413    7.1049605    7.1550095
:EIG00186:       7.1680839    7.1726534    7.2679263    7.2825395    7.2853301
:EIG00191:       7.3296877    7.3454182    7.3999429    7.4072899    7.4400466
:EIG00196:       7.4452094    7.4615021    7.4884963    7.4979603    7.5452741
 
:EIG00201:       7.5512527    7.6095778    7.6195755    7.6376781    7.7024446
:EIG00206:       7.7025480    7.7153796    7.7699233    7.8024195    7.8226243
:EIG00211:       7.8334102    7.8817384    7.8907033    7.9033996    7.9120298
:EIG00216:       7.9563360    7.9640605    7.9659517    7.9875471    8.0285172
:EIG00221:       8.0482966
       ********************************************************

:KPT   :      NUMBER OF K-POINTS:   288

------- case.scfso --------
   0.0   0.0 angle (M,z), angle (M,x) deg
 
        SPIN-ORBIT EIGENVALUES:
     K=   0.06250   0.00000   0.06250            1
      MATRIX SIZE=  442   WEIGHT= 4.00
     EIGENVALUES ARE:
          -2.0856423   -2.0856423   -2.0752490   -2.0752490   -0.8977873
          -0.8977873   -0.8676769   -0.8676769   -0.7093375   -0.7093375
          -0.6572225   -0.6572225   -0.6545703   -0.6545703   -0.6481707
          -0.6481707    0.3334070    0.3334070    0.4746459    0.4746460
           0.5398607    0.5398607    0.5421712    0.5421712    0.5435122
           0.5435122    0.5447335    0.5447335    0.5467688    0.5467688
           0.5491887    0.5491887    0.5678062    0.5678062    0.5731710
           0.5731710    0.5754393    0.5754393    0.5768668    0.5768668

           0.5801095    0.5801095    0.5836312    0.5836312    0.5846471
           0.5846471    0.5879003    0.5879003    0.6276677    0.6276677
           0.6420617    0.6420617    0.7105603    0.7105603    0.7300564
           0.7300564    0.7458798    0.7458799    0.7848053    0.7848053
           0.7997261    0.7997261    0.8737725    0.8737725    0.9179910
           0.9179910    0.9562033    0.9562033    1.2226582    1.2226582
           1.2574109    1.2574109    1.3450669    1.3450669    1.3475276
           1.3475276    1.4971647    1.4971647    1.5480861    1.5480861

           1.5953503    1.5953503    1.6960108    1.6960108    1.7631668
           1.7631668    1.7836412    1.7836412    1.8657752    1.8657752
           1.9320001    1.9320001    1.9406510    1.9406510    1.9905257
           1.9905257    2.0519453    2.0519453    2.1325527    2.1325527
           2.1829378    2.1829378    2.2355030    2.2355030    2.2550532
           2.2550532    2.3148854    2.3148854    2.3387322    2.3387322
           2.4203111    2.4203111    2.4634523    2.4634523    2.4705360
           2.4705360    2.5687346    2.5687346    2.6101154    2.6101154

           2.6798074    2.6798074    2.6971924    2.6971924    2.8233062
           2.8233062    2.9115811    2.9115811    2.9137036    2.9137036
           3.0098779    3.0098779    3.0631672    3.0631672    3.0742329
           3.0742329    3.0789972    3.0789972    3.1686224    3.1686224
           3.1704338    3.1704338    3.2204263    3.2204263    3.2454132
           3.2454132    3.2865805    3.2865805    3.3052166    3.3052166
           3.3434380    3.3434380    3.3823345    3.3823345    3.4160165
           3.4160165    3.4429109    3.4429109    3.4667430    3.4667430

           3.5034758    3.5034758    3.5466230    3.5466230    3.5550132
           3.5550132    3.6064866    3.6064866    3.6490420    3.6490420
           3.6786678    3.6786678    3.7587970    3.7587970    3.7623199
           3.7623199    3.7942723    3.7942723    3.8065771    3.8065771
           3.8404288    3.8404288    3.8623311    3.8623311    3.9078106
           3.9078106    3.9106591    3.9106591    3.9199061    3.9199061
           3.9765569    3.9765569    4.0062372    4.0062372    4.0105700
           4.0105700    4.0258059    4.0258059    4.1058554    4.1058554

           4.1652402    4.1652402    4.2909063    4.2909063    4.2999369
           4.2999369    4.3579921    4.3579921    4.3950663    4.3950663
           4.4047818    4.4047818    4.4450687    4.4450687    4.4505589
           4.4505589    4.4976136    4.4976136
       ********************************************************

------- case.scf2 --------
:GMA  : POTENTIAL AND CHARGE CUT-OFF  12.00 Ry**.5




:POS001: at.nr.  -1 position = 0.00000 0.89750 0.25000  multiplicity =  2

       lmmax 16
       lm=   0 0  1 0  2 0  2 2  3 0  3 2  4 0  4 2  4 4  5 0  5 2  5 4  6 0  6 2  6 4  6 6
:FER gutzwiller fermi energy   0.58451
:EORB         -0.274427332
:SUM sum of gutz band energies        -11.915492358

:CHA001: total charge inside sphere   1 =     9.481544
:PCS001: partial charges sphere =  1 s,p,d,f,px,py,pz,d-z2,d-x2y2,d-xy,d-xz,d-yz 
:QTL001: 1.9430 5.0351 0.5410 1.9622 1.6750 1.6763 1.6838 0.1008 0.1021 0.1175 0.1028 0.1178

                      vxx         vyy         vzz       up to r

:VZZ001:             4.57404     2.83448    -7.40852       2.300

:CHA  : total charge inside unit cell =      13.000000

------- case.scfc --------

        1.ATOM      Pr1                  14 CORE STATES
       CORE-FORCE in mRy/a.u. = |F|      Fx             Fy             Fz
:FCO001:   1.ATOM    450.652715164599      0.000000000000      0.000000000000    450.652715164599

:1S 001: 1S               -3067.050691475 Ry
:2S 001: 2S                -492.804618002 Ry
:2PP001: 2P*               -465.903564915 Ry
:2P 001: 2P                -430.506146485 Ry
:3S 001: 3S                -105.895778101 Ry
:3PP001: 3P*                -94.433559811 Ry
:3P 001: 3P                 -87.425779918 Ry
:3DD001: 3D*                -67.352675489 Ry
:3D 001: 3D                 -65.841131847 Ry
:4S 001: 4S                 -20.573882930 Ry
:4PP001: 4P*                -16.280642475 Ry
:4P 001: 4P                 -14.753226155 Ry
:4DD001: 4D*                 -7.686025749 Ry
:4D 001: 4D                  -7.416604378 Ry

------- case.scfm --------
:CINT001 Core Integral Atom   1   45.998498

       DENSITY AT NUCLEUS
        JATOM        VALENCE       SEMI-CORE          CORE           TOTAL
:RTO001:   1      649.805897        0.000000   656824.360688   657474.166585
     
       CHARGES OF NEW CHARGE DENSITY
:NTO   : INTERSTITIAL CHARGE =     7.037570
:NPC   : PW Pseudocharge     =    16.948341
:NTO001: CHARGE SPHERE  1    =    55.480042

:NEC01: NUCLEAR AND ELECTRONIC CHARGE    118.00000   117.99765
     
       CHARGES OF OLD CHARGE DENSITY
:OTO   : INTERSTITIAL CHARGE =     7.034243
:OPC   : PW Pseudocharge     =    16.951622
:OTO001: CHARGE SPHERE  1    =    55.482879

:NEC02: NUCLEAR AND ELECTRONIC CHARGE    118.00000   118.00000
     
       CONVERGENCE TEST
:DTO001: DIFFERENCE IN SPHERE  1 =  0.0048984

:DIS  :  CHARGE DISTANCE       ( 0.0048984 for atom    1 spin 1)      0.0048984
 PW Mixed is          533
 
******************************************************
* MULTISECANT MIXING VER9 RELEASE 10.4.0              *
* Standard Mode with controls                        *
* Fixed density scale                                *
* Regularization       1.000E-04                     *
* Trust Upper Limit    5.000E+00                     *
* Max Number of Memory Steps    8                    *
******************************************************
 
:PWTMP   4.1634E+02  1.9467E+02  5.1827E+02
:PLANE:  PW TOTAL      4.4839 DISTAN   9.36E-04  2.09E-02 %
:CHARG:  CLM/ATOM   1381.9556 DISTAN   7.44E-03  5.39E-04 %
 
Step History
        DMIX         DMIXT        Red     Pred      Trust     Lambda    MagRel    MagAbs     Beta
  1   3.5000E-02   3.5000E-02 -1.00E+00  1.00E+00 -1.00E+01  1.00E+00  3.50E-02  3.50E-02  1.00E+00
  2   1.5000E-01   1.5000E-01  5.98E-01  1.00E+00 -1.00E+01  1.00E+00  1.50E-01  5.49E-03  1.00E+00
  3   7.1250E-02   7.1250E-02  5.37E-01  6.07E-01  3.00E+00  5.52E-01  2.86E-01  6.24E-03  1.00E+00
  4   1.7813E-01   1.7813E-01 -1.00E+00  2.54E-01  4.00E+00  1.00E+00  5.05E-01  5.94E-03  9.55E-01
:JACOBIANS    1.388E-02   7.284E-01
  
:NORMS:  1/Froebius, Min, Max, Used   0.5103E+00  0.4210E+00  0.7236E+00  0.5461E+00
:INFO :  Number of Memory Steps    3 Skipping    0
:INFO :  SLambda=    2.0192870363  Max    2.0192870363
:PREDicted Charge, CTotal, PW Trust    3.626E-04   7.252E-04   1.425E-04
:PREDicted DMix, Beta, BLim   1.8374E-01  1.3198E+00  6.9142E-01

Eigenvalues, unscaled except for SY+YY
   #     SY Real        SY Imag          SS             YY         SY+YY Real      SY+YY Imag
   1   1.144038E-05   0.000000E+00   6.111824E-01   2.049667E+00   9.185479E-05   0.000000E+00
   2   6.615824E-01   4.767552E-02   1.700294E-01   9.502689E-01   3.400825E+00   0.000000E+00
   3   6.615824E-01  -4.767552E-02   2.492287E-06   6.386053E-05   2.270955E+00   0.000000E+00
 
:INFO :  Singular value  3.503E+00 Weight  1.000E+00 Projection -5.360E-03
:INFO :  Singular value  2.205E+00 Weight  1.000E+00 Projection -1.818E-04
:INFO :  Singular value  9.185E-05 Weight  1.672E-01 Projection -3.859E-03
:RANK :  ACTIVE   2.17/3  =  72.24 % ; YY RANK   2.09/3  =  69.62 %
 
:BLIM :  VZERO Control Off
:TRUST:  Step 5.33E+00  Charge 7.50E-02 (e) CTO  2.50E-01 (e) PW  3.50E-01 (e)
:DIRM :  MEMORY  3/8  SCALE   1.000 RED  0.64 PRED  0.25 NEXT  0.17 
:TRAVE:  Charge 1.28E-03 (e) CTO  2.57E-03 (e) PW  1.97E-03 (e)
:DIRP :  |MSR1|= 6.422E-04 |PRATT|= 9.364E-04 ANGLE=  25.8 DEGREES
:DIRQ :  |MSR1|= 3.690E-03 |PRATT|= 7.443E-03 ANGLE=  36.4 DEGREES
:DIRT :  |MSR1|= 3.745E-03 |PRATT|= 7.501E-03 ANGLE=  36.3 DEGREES
:MIX  :   MSE1   REGULARIZATION:  2.05E-04 GREED: 0.15687  Newton 1.00  0.4993                
     
       CHARGES OF MIXED CHARGE DENSITY
:CTO   : INTERSTITIAL CHARGE =     7.036190
:CPC   : PW Pseudocharge     =    16.953403
:CTO001: CHARGE SPHERE  1    =    55.481905

:NEC03: NUCLEAR AND ELECTRONIC CHARGE    118.00000   118.00000

PW CHANGE     H    K    L      Current       Change    Residue
:PTO001:      0    0    0  4.62876559E-02  7.193E-06  1.552E-05
:PTO003:      0    2    0  1.31672882E-02  1.342E-06 -1.543E-06
:PTO004:     -1    1    0  6.56794667E-02  7.007E-06  5.303E-06
:PTO005:      0    2   -1 -7.67470010E-02 -7.888E-06 -4.940E-06
:PTO006:      0    0   -2 -3.97456366E-02 -5.040E-06 -5.946E-06
:PTO007:     -1    1   -1 -8.40692850E-02 -8.634E-06 -9.894E-06
:PTO008:      0    2   -2 -1.41708023E-02 -1.619E-06 -9.767E-07
:PTO009:     -1    1   -2 -7.29800121E-02 -3.923E-06 -1.093E-06
:PTO011:     -1    3    0 -1.22332083E-02 -2.348E-06 -3.902E-06
:PTO012:     -1    3   -1 -5.55683623E-02 -8.409E-06 -5.353E-06
:PTO013:      0    4    0 -1.03675946E-02 -2.667E-06 -2.739E-06
:PTO014:      0    2   -3  2.35564265E-02  4.138E-06  3.233E-06

:ENE  : ********** TOTAL ENERGY IN Ry =       -36944.22589698

       TOTAL FORCE IN mRy/a.u. = |F|     Fx             Fy             Fz     with/without FOR in case.in2
:FOR001:   1.ATOM         17.936          0.000          0.000        -17.936 partial forces
       TOTAL FORCE WITH RESPECT TO GLOBAL CARTESIAN COORDINATES:
:FCA001:   1.ATOM                         0.000        -17.936          0.000 partial forces
       TOTAL FORCE WITH RESPECT TO THE GLOBAL COORDINATE SYSTEM:
:FGL001:   1.ATOM                 0.000000000   -17.936361529     0.000000000 partial forces

------- case.scf0 --------
 Flat Integration
 New Mode for Coulomb Integral
 Consistent 3/8+Simpson combinations
 Extension of core to zero
 LDM version in phi
 Fifth-order quadrature in outwin


            ---------
:ITE067: 67. ITERATION
            ---------

:NATO :    1 INDEPENDENT AND    2 TOTAL ATOMS IN UNITCELL
       SUBSTANCE: aU                                                          

       LATTICE                      = CXY 
:POT  : POTENTIAL OPTION EX_LDA EC_LDA VX_LDA VC_LDA
:LAT  : LATTICE CONSTANTS=  6.63103 13.45604 11.61688    1.571    1.571    1.571
:VOL  : UNIT CELL VOLUME =     518.27193
       MODE OF CALCULATION IS       = RELA
       NON-SPINPOLARIZED CALCULATION
:IFFT  : FFT-parameters:   54  108   96 Factor: 2.00


   CONVERGENCE PARAMETER FOR PSEUDOCHARGE: NCON=  9
   MAXIMAL VALUE OF RMT(JATOM)*ABSK(NKK) : RK  =27.59967


:VKCOUL :  VK-COUL convergence: 0.773E-07
       ATOMNUMBER=  1 Pr1        VCOUL-ZERO = -0.54325E-02
:EFG001:                        EFG         =    -7.40702   *10**21  V / m**2
                               V20  TOT/SRF=    -6.41467    -0.02265
                               V22  TOT/SRF=     0.86580     0.00289
                               V22M TOT/SRF=     0.00000     0.00000
                               V21  TOT/SRF=     0.00000     0.00000
                               V21M TOT/SRF=     0.00000     0.00000

              4.56931    0.00000    0.00000        4.56931    0.00000    0.00000
              0.00000    2.83771    0.00000        0.00000    2.83771    0.00000
              0.00000    0.00000   -7.40702        0.00000    0.00000   -7.40702

         MAIN DIRECTIONS OF THE EFG   1.0000  0.0000  0.0000
                                      0.0000  1.0000  0.0000
                                      0.0000  0.0000  1.0000
:ANG001:  ANGLE WITH OLD X-AXIS =         0.0

:ETA001:                         ASYMM. ETA =     0.23378


     HELLMANN-FEYNMAN-FORCE IN mRy/a.u. = |F|  Fx       Fy             Fz
:FHF001:   1.ATOM    459.916078820630      0.000000000000      0.000000000000   -459.916078820630

:FIT001: LUSE= 13 SIGMA OF V-XC FIT FOR ATOM  1  0.8094788E-05
:FIT001: LUSE= 13 SIGMA OF V-XC FIT FOR ATOM  1  0.8094788E-05
:DEN  : DENSITY INTEGRAL  =        -14139.22944389   (Ry)
       ELS_POTENTIAL_AT Z=0 and Z=0.5:   0.68316   0.68316
       ELS_POTENTIAL_AT Y=0 and Y=0.5:   0.07400   0.07400
:VZERO:v0,v0c,v0x   0.12686   0.68316  -0.55630 v5,v5c,v5x   0.12686   0.68316  -0.55630
:VZERY:v0,v0c,v0x  -0.67010   0.07400  -0.74410 v5,v5c,v5x  -0.67010   0.07400  -0.74410
:VZERX:v0,v0c,v0x  -1.08995  -0.37298  -0.71696 v5,v5c,v5x  -1.08995  -0.37298  -0.71696

------- case.scf1 --------
:LMAX-WF:   10   Non-Spherical LMAX:   4

          ATOMIC SPHERE DEPENDENT PARAMETERS FOR ATOM  Pr1       
:e__0001: OVERALL ENERGY PARAMETER IS    0.3688
          OVERALL BASIS SET ON ATOM IS LAPW
:E0_0001: E( 0)=    0.3688
             APW+lo
:E0_0001: E( 0)=   -2.1196   E(BOTTOM)=   -2.754   E(TOP)=   -1.485  4  5   171
             LOCAL ORBITAL
:E1_0001: E( 1)=    0.7688
             APW+lo
:E1_0001: E( 1)=   -0.6489   E(BOTTOM)=   -1.605   E(TOP)=    0.307  3  4   190
             LOCAL ORBITAL
:E3_0001: E( 3)=    0.5317   E(BOTTOM)=    0.325   E(TOP)=    0.739  0  1   123
             APW+lo
:E2_0001: E( 2)=    0.3688   E(BOTTOM)=    0.137   E(TOP)= -200.000  2 -1    94
             APW+lo

       K=   0.06250   0.00000   0.06250            1
:RKM  : MATRIX SIZE   473LOs:  40  RKM= 8.48  WEIGHT= 4.00  PGR:    
       EIGENVALUES ARE:
:EIG00001:      -2.0863114   -2.0759266   -0.8005339   -0.7392270   -0.7255406
:EIG00006:      -0.7209596   -0.7155509   -0.7153248    0.3333650    0.4747159
:EIG00011:       0.5469568    0.5473689    0.5473976    0.5506984    0.5528866
:EIG00016:       0.5607196    0.5651752    0.5654272    0.5678945    0.5699011
:EIG00021:       0.5734540    0.5762647    0.5771151    0.5801649    0.6270166
:EIG00026:       0.6420865    0.7109416    0.7309135    0.7445193    0.7841032
:EIG00031:       0.7995251    0.8737480    0.9174396    0.9558000    1.2224795
:EIG00036:       1.2570759    1.3450694    1.3473742    1.4975852    1.5486510
:EIG00041:       1.5953105    1.6979150    1.7642825    1.7823670    1.8650804
:EIG00046:       1.9325148    1.9427465    1.9890821    2.0513457    2.1328633
 
:EIG00051:       2.1831908    2.2381872    2.2529540    2.3137553    2.3374476
:EIG00056:       2.4203689    2.4656177    2.4676528    2.5686183    2.6102714
:EIG00061:       2.6763457    2.6967642    2.8232790    2.9117085    2.9132696
:EIG00066:       3.0099926    3.0632814    3.0737823    3.0789244    3.1686296
:EIG00071:       3.1701213    3.2203655    3.2453195    3.2870908    3.3043796
:EIG00076:       3.3431854    3.3809656    3.4158902    3.4428417    3.4662910
:EIG00081:       3.5032443    3.5466278    3.5548369    3.6062628    3.6489939
:EIG00086:       3.6785741    3.7586886    3.7623547    3.7942880    3.8064857
:EIG00091:       3.8404286    3.8622557    3.9080381    3.9106590    3.9197933
:EIG00096:       3.9765531    4.0077320    4.0089196    4.0257476    4.1058333
 
:EIG00101:       4.1653420    4.2932802    4.2981870    4.3571554    4.3951466
:EIG00106:       4.4044915    4.4454765    4.4492697    4.4973862    4.5286030
:EIG00111:       4.6098749    4.6112032    4.6487013    4.6588644    4.7127372
:EIG00116:       4.7593258    4.8345358    4.8531716    4.8742658    4.9015229
:EIG00121:       4.9205755    5.0113255    5.0328053    5.0636173    5.1095259
:EIG00126:       5.1919201    5.1977429    5.2384962    5.2840818    5.3124020
:EIG00131:       5.3230044    5.3832925    5.4155101    5.4217754    5.4425432
:EIG00136:       5.5066426    5.5481626    5.5960623    5.6103407    5.6384657
:EIG00141:       5.6518636    5.6615250    5.7088929    5.7558474    5.7887314
:EIG00146:       5.8010172    5.8145060    5.8151236    5.8298439    5.9245145
 
:EIG00151:       5.9526834    5.9654902    6.0467279    6.0658655    6.1037652
:EIG00156:       6.2053526    6.2896356    6.3171870    6.3532840    6.3567567
:EIG00161:       6.4133404    6.4651659    6.5098553    6.5208628    6.5278411
:EIG00166:       6.5995902    6.6215662    6.6307807    6.6631278    6.6990559
:EIG00171:       6.7155874    6.7780934    6.8134195    6.8169699    6.8774139
:EIG00176:       6.8899300    6.9092957    6.9591127    6.9620062    6.9999020
:EIG00181:       7.0635116    7.0773221    7.0843911    7.1049751    7.1550085
:EIG00186:       7.1680941    7.1725799    7.2678969    7.2824888    7.2852989
:EIG00191:       7.3296936    7.3454163    7.3999295    7.4072909    7.4400442
:EIG00196:       7.4451941    7.4615034    7.4884744    7.4979487    7.5452456
 
:EIG00201:       7.5512774    7.6095914    7.6196057    7.6376514    7.7024057
:EIG00206:       7.7025218    7.7153544    7.7699280    7.8024112    7.8226123
:EIG00211:       7.8334133    7.8817235    7.8906935    7.9033833    7.9120204
:EIG00216:       7.9563431    7.9640358    7.9659384    7.9875471    8.0285511
:EIG00221:       8.0483298
       ********************************************************

:KPT   :      NUMBER OF K-POINTS:   288

------- case.scfso --------
   0.0   0.0 angle (M,z), angle (M,x) deg
 
        SPIN-ORBIT EIGENVALUES:
     K=   0.06250   0.00000   0.06250            1
      MATRIX SIZE=  442   WEIGHT= 4.00
     EIGENVALUES ARE:
          -2.0863116   -2.0863116   -2.0759266   -2.0759266   -0.8983148
          -0.8983148   -0.8682339   -0.8682339   -0.7098080   -0.7098079
          -0.6577312   -0.6577312   -0.6550759   -0.6550759   -0.6486842
          -0.6486842    0.3333937    0.3333937    0.4745687    0.4745687
           0.5387586    0.5387586    0.5410533    0.5410533    0.5423877
           0.5423877    0.5436116    0.5436116    0.5456351    0.5456351
           0.5480048    0.5480048    0.5667351    0.5667351    0.5720222
           0.5720222    0.5742690    0.5742690    0.5757219    0.5757219

           0.5789534    0.5789535    0.5824601    0.5824601    0.5834845
           0.5834845    0.5867243    0.5867243    0.6273130    0.6273130
           0.6418393    0.6418393    0.7103552    0.7103553    0.7298798
           0.7298798    0.7456993    0.7456994    0.7846252    0.7846252
           0.7995267    0.7995267    0.8735588    0.8735589    0.9177437
           0.9177437    0.9559373    0.9559373    1.2224375    1.2224375
           1.2573255    1.2573255    1.3449855    1.3449855    1.3474646
           1.3474646    1.4971186    1.4971186    1.5480406    1.5480406

           1.5952597    1.5952597    1.6959208    1.6959208    1.7630644
           1.7630644    1.7835384    1.7835384    1.8656137    1.8656137
           1.9319049    1.9319049    1.9405966    1.9405966    1.9904226
           1.9904226    2.0518669    2.0518669    2.1324039    2.1324039
           2.1828324    2.1828324    2.2354166    2.2354166    2.2549696
           2.2549696    2.3147559    2.3147559    2.3385948    2.3385948
           2.4202390    2.4202390    2.4633617    2.4633617    2.4703831
           2.4703831    2.5686460    2.5686460    2.6099871    2.6099871

           2.6796589    2.6796589    2.6971385    2.6971385    2.8231951
           2.8231951    2.9115124    2.9115124    2.9136836    2.9136836
           3.0098191    3.0098191    3.0630700    3.0630700    3.0741685
           3.0741685    3.0788696    3.0788696    3.1685856    3.1685856
           3.1704341    3.1704341    3.2203971    3.2203971    3.2453715
           3.2453715    3.2865163    3.2865163    3.3051725    3.3051725
           3.3433538    3.3433538    3.3823110    3.3823110    3.4159665
           3.4159665    3.4428890    3.4428890    3.4666853    3.4666853

           3.5034412    3.5034412    3.5466425    3.5466425    3.5549916
           3.5549916    3.6064205    3.6064205    3.6490351    3.6490351
           3.6786868    3.6786868    3.7587943    3.7587943    3.7623523
           3.7623523    3.7942835    3.7942835    3.8065386    3.8065386
           3.8404448    3.8404448    3.8623047    3.8623047    3.9078221
           3.9078221    3.9105962    3.9105962    3.9198339    3.9198339
           3.9765663    3.9765663    4.0062288    4.0062288    4.0105500
           4.0105500    4.0258248    4.0258248    4.1058791    4.1058791

           4.1651821    4.1651821    4.2908874    4.2908874    4.2998907
           4.2998907    4.3579817    4.3579817    4.3950707    4.3950707
           4.4047816    4.4047816    4.4450667    4.4450667    4.4505532
           4.4505532    4.4976032    4.4976032
       ********************************************************

------- case.scf2 --------
:GMA  : POTENTIAL AND CHARGE CUT-OFF  12.00 Ry**.5




:POS001: at.nr.  -1 position = 0.00000 0.89750 0.25000  multiplicity =  2

       lmmax 16
       lm=   0 0  1 0  2 0  2 2  3 0  3 2  4 0  4 2  4 4  5 0  5 2  5 4  6 0  6 2  6 4  6 6
:FER gutzwiller fermi energy   0.58431
:EORB         -0.278296438
:SUM sum of gutz band energies        -11.925687446

:CHA001: total charge inside sphere   1 =     9.483949
:PCS001: partial charges sphere =  1 s,p,d,f,px,py,pz,d-z2,d-x2y2,d-xy,d-xz,d-yz 
:QTL001: 1.9430 5.0355 0.5408 1.9645 1.6751 1.6765 1.6839 0.1007 0.1021 0.1175 0.1027 0.1177

                      vxx         vyy         vzz       up to r

:VZZ001:             4.56152     2.81303    -7.37455       2.300

:CHA  : total charge inside unit cell =      13.000000

------- case.scfc --------

        1.ATOM      Pr1                  14 CORE STATES
       CORE-FORCE in mRy/a.u. = |F|      Fx             Fy             Fz
:FCO001:   1.ATOM    442.244342911003      0.000000000000      0.000000000000    442.244342911003

:1S 001: 1S               -3067.051730013 Ry
:2S 001: 2S                -492.805880151 Ry
:2PP001: 2P*               -465.904777339 Ry
:2P 001: 2P                -430.507377478 Ry
:3S 001: 3S                -105.897427482 Ry
[...]

:NEC03: NUCLEAR AND ELECTRONIC CHARGE    118.00000   118.00000

PW CHANGE     H    K    L      Current       Change    Residue
:PTO001:      0    0    0  4.62847774E-02 -3.108E-07  9.449E-07
:PTO003:      0    2    0  1.31672492E-02  9.321E-08 -1.298E-07
:PTO004:     -1    1    0  6.56792262E-02  5.294E-07  3.737E-07
:PTO005:      0    2   -1 -7.67460237E-02 -2.956E-07  4.634E-09
:PTO006:      0    0   -2 -3.97454421E-02 -3.909E-07 -5.348E-07
:PTO007:     -1    1   -1 -8.40682080E-02 -4.312E-07 -5.776E-07
:PTO008:      0    2   -2 -1.41712263E-02 -3.336E-07 -3.163E-07
:PTO009:     -1    1   -2 -7.29796324E-02 -3.098E-07 -2.167E-08
:PTO011:     -1    3    0 -1.22332267E-02 -2.223E-07 -3.560E-07
:PTO012:     -1    3   -1 -5.55699142E-02 -1.395E-06 -1.256E-06
:PTO013:      0    4    0 -1.03681862E-02 -4.764E-07 -5.471E-07
:PTO014:      0    2   -3  2.35576766E-02  8.563E-07  8.052E-07

:ENE  : ********** TOTAL ENERGY IN Ry =       -36944.22593644

       TOTAL FORCE IN mRy/a.u. = |F|     Fx             Fy             Fz     with/without FOR in case.in2
:FOR001:   1.ATOM         17.638          0.000          0.000        -17.638 partial forces
       TOTAL FORCE WITH RESPECT TO GLOBAL CARTESIAN COORDINATES:
:FCA001:   1.ATOM                         0.000        -17.638          0.000 partial forces
       TOTAL FORCE WITH RESPECT TO THE GLOBAL COORDINATE SYSTEM:
:FGL001:   1.ATOM                 0.000000000   -17.637692342     0.000000000 partial forces

------- case.scf0 --------
 Flat Integration
 New Mode for Coulomb Integral
 Consistent 3/8+Simpson combinations
 Extension of core to zero
 LDM version in phi
 Fifth-order quadrature in outwin


            ---------
:ITE069: 69. ITERATION
            ---------

:NATO :    1 INDEPENDENT AND    2 TOTAL ATOMS IN UNITCELL
       SUBSTANCE: aU                                                          

       LATTICE                      = CXY 
:POT  : POTENTIAL OPTION EX_LDA EC_LDA VX_LDA VC_LDA
:LAT  : LATTICE CONSTANTS=  6.63103 13.45604 11.61688    1.571    1.571    1.571
:VOL  : UNIT CELL VOLUME =     518.27193
       MODE OF CALCULATION IS       = RELA
       NON-SPINPOLARIZED CALCULATION
:IFFT  : FFT-parameters:   54  108   96 Factor: 2.00


   CONVERGENCE PARAMETER FOR PSEUDOCHARGE: NCON=  9
   MAXIMAL VALUE OF RMT(JATOM)*ABSK(NKK) : RK  =27.59967


:VKCOUL :  VK-COUL convergence: 0.773E-07
       ATOMNUMBER=  1 Pr1        VCOUL-ZERO = -0.54087E-02
:EFG001:                        EFG         =    -7.40110   *10**21  V / m**2
                               V20  TOT/SRF=    -6.40954    -0.02263
                               V22  TOT/SRF=     0.87499     0.00290
                               V22M TOT/SRF=     0.00000     0.00000
                               V21  TOT/SRF=     0.00000     0.00000
                               V21M TOT/SRF=     0.00000     0.00000

              4.57554    0.00000    0.00000        4.57554    0.00000    0.00000
              0.00000    2.82556    0.00000        0.00000    2.82556    0.00000
              0.00000    0.00000   -7.40110        0.00000    0.00000   -7.40110

         MAIN DIRECTIONS OF THE EFG   1.0000  0.0000  0.0000
                                      0.0000  1.0000  0.0000
                                      0.0000  0.0000  1.0000
:ANG001:  ANGLE WITH OLD X-AXIS =         0.0

:ETA001:                         ASYMM. ETA =     0.23645


     HELLMANN-FEYNMAN-FORCE IN mRy/a.u. = |F|  Fx       Fy             Fz
:FHF001:   1.ATOM    459.987424522050      0.000000000000      0.000000000000   -459.987424522050

:FIT001: LUSE= 13 SIGMA OF V-XC FIT FOR ATOM  1  0.8089986E-05
:FIT001: LUSE= 13 SIGMA OF V-XC FIT FOR ATOM  1  0.8089986E-05
:DEN  : DENSITY INTEGRAL  =        -14139.29141261   (Ry)
       ELS_POTENTIAL_AT Z=0 and Z=0.5:   0.68308   0.68308
       ELS_POTENTIAL_AT Y=0 and Y=0.5:   0.07401   0.07401
:VZERO:v0,v0c,v0x   0.12680   0.68308  -0.55628 v5,v5c,v5x   0.12680   0.68308  -0.55628
:VZERY:v0,v0c,v0x  -0.67007   0.07401  -0.74408 v5,v5c,v5x  -0.67007   0.07401  -0.74408
:VZERX:v0,v0c,v0x  -1.08989  -0.37295  -0.71694 v5,v5c,v5x  -1.08989  -0.37295  -0.71694

------- case.scf1 --------
:LMAX-WF:   10   Non-Spherical LMAX:   4

          ATOMIC SPHERE DEPENDENT PARAMETERS FOR ATOM  Pr1       
:e__0001: OVERALL ENERGY PARAMETER IS    0.3688
          OVERALL BASIS SET ON ATOM IS LAPW
:E0_0001: E( 0)=    0.3688
             APW+lo
:E0_0001: E( 0)=   -2.1193   E(BOTTOM)=   -2.754   E(TOP)=   -1.485  4  5   163
             LOCAL ORBITAL
:E1_0001: E( 1)=    0.7688
             APW+lo
:E1_0001: E( 1)=   -0.6486   E(BOTTOM)=   -1.605   E(TOP)=    0.307  3  4   198
             LOCAL ORBITAL
:E3_0001: E( 3)=    0.5322   E(BOTTOM)=    0.325   E(TOP)=    0.739  0  1   123
             APW+lo
:E2_0001: E( 2)=    0.3688   E(BOTTOM)=    0.137   E(TOP)= -200.000  2 -1    94
             APW+lo

       K=   0.06250   0.00000   0.06250            1
:RKM  : MATRIX SIZE   473LOs:  40  RKM= 8.48  WEIGHT= 4.00  PGR:    
       EIGENVALUES ARE:
:EIG00001:      -2.0860239   -2.0756354   -0.8003338   -0.7390072   -0.7253164
:EIG00006:      -0.7207245   -0.7153230   -0.7150878    0.3333575    0.4747414
:EIG00011:       0.5473878    0.5478128    0.5478353    0.5511476    0.5533316
:EIG00016:       0.5611936    0.5656516    0.5659050    0.5683741    0.5703729
:EIG00021:       0.5739384    0.5767457    0.5776040    0.5806485    0.6271539
:EIG00026:       0.6421743    0.7110119    0.7309889    0.7445914    0.7841806
:EIG00031:       0.7996112    0.8738370    0.9175455    0.9559154    1.2225697
:EIG00036:       1.2570995    1.3450941    1.3473857    1.4975917    1.5486532
:EIG00041:       1.5953363    1.6979390    1.7643166    1.7823989    1.8651414
:EIG00046:       1.9325451    1.9427547    1.9891186    2.0513672    2.1329176
 
:EIG00051:       2.1832277    2.2382142    2.2529795    2.3138057    2.3374950
:EIG00056:       2.4203895    2.4656255    2.4677296    2.5686493    2.6103176
:EIG00061:       2.6764022    2.6967764    2.8233192    2.9117329    2.9132615
:EIG00066:       3.0100089    3.0633167    3.0738005    3.0789728    3.1686409
:EIG00071:       3.1701070    3.2203708    3.2453301    3.2871109    3.3043891
:EIG00076:       3.3432141    3.3809655    3.4159025    3.4428434    3.4663095
:EIG00081:       3.5032519    3.5466110    3.5548381    3.6062850    3.6489899
:EIG00086:       3.6785562    3.7586822    3.7623286    3.7942722    3.8064963
:EIG00091:       3.8404134    3.8622603    3.9080227    3.9106862    3.9198209
:EIG00096:       3.9765379    4.0077191    4.0089240    4.0257300    4.1058137
 
:EIG00101:       4.1653591    4.2932719    4.2982077    4.3571498    4.3951338
:EIG00106:       4.4044834    4.4454663    4.4492653    4.4973847    4.5285886
:EIG00111:       4.6098504    4.6112243    4.6486655    4.6588836    4.7127418
:EIG00116:       4.7593420    4.8345632    4.8531547    4.8743006    4.9015573
:EIG00121:       4.9205767    5.0113240    5.0328251    5.0636130    5.1095233
:EIG00126:       5.1919233    5.1977647    5.2385060    5.2840837    5.3124172
:EIG00131:       5.3229927    5.3832888    5.4155116    5.4217688    5.4425492
:EIG00136:       5.5066323    5.5481564    5.5960515    5.6103476    5.6384661
:EIG00141:       5.6518720    5.6615415    5.7088967    5.7558216    5.7887690
:EIG00146:       5.8010077    5.8144858    5.8151015    5.8298436    5.9244975
 
:EIG00151:       5.9527066    5.9654684    6.0467193    6.0658440    6.1037800
:EIG00156:       6.2053400    6.2896333    6.3171814    6.3532983    6.3567442
:EIG00161:       6.4133644    6.4651488    6.5098519    6.5208778    6.5278561
:EIG00166:       6.5995957    6.6215598    6.6307817    6.6631227    6.6990585
:EIG00171:       6.7155972    6.7781006    6.8134307    6.8169881    6.8774245
:EIG00176:       6.8899663    6.9093086    6.9591394    6.9620136    6.9999165
:EIG00181:       7.0635268    7.0773154    7.0844050    7.1049598    7.1549993
:EIG00186:       7.1680817    7.1726031    7.2678997    7.2825030    7.2853013
:EIG00191:       7.3296829    7.3454067    7.3999270    7.4072815    7.4400375
:EIG00196:       7.4451907    7.4614925    7.4884764    7.4979461    7.5452497
 
:EIG00201:       7.5512558    7.6095773    7.6195843    7.6376545    7.7024162
:EIG00206:       7.7025261    7.7153561    7.7699165    7.8024065    7.8226108
:EIG00211:       7.8334038    7.8817223    7.8906894    7.9033812    7.9120155
:EIG00216:       7.9563318    7.9640371    7.9659358    7.9875365    8.0285269
:EIG00221:       8.0483054
       ********************************************************

:KPT   :      NUMBER OF K-POINTS:   288

------- case.scfso --------
   0.0   0.0 angle (M,z), angle (M,x) deg
 
        SPIN-ORBIT EIGENVALUES:
     K=   0.06250   0.00000   0.06250            1
      MATRIX SIZE=  442   WEIGHT= 4.00
     EIGENVALUES ARE:
          -2.0860241   -2.0860241   -2.0756354   -2.0756354   -0.8980862
          -0.8980862   -0.8679915   -0.8679915   -0.7096033   -0.7096033
          -0.6575078   -0.6575078   -0.6548539   -0.6548539   -0.6484607
          -0.6484607    0.3333862    0.3333862    0.4745951    0.4745951
           0.5392023    0.5392023    0.5415083    0.5415083    0.5428470
           0.5428470    0.5440691    0.5440691    0.5460979    0.5460979
           0.5484843    0.5484843    0.5671717    0.5671717    0.5724916
           0.5724916    0.5747409    0.5747409    0.5761920    0.5761920

           0.5794197    0.5794197    0.5829361    0.5829361    0.5839627
           0.5839627    0.5872067    0.5872067    0.6274594    0.6274594
           0.6419302    0.6419302    0.7104309    0.7104310    0.7299527
           0.7299527    0.7457720    0.7457720    0.7847024    0.7847024
           0.7996129    0.7996129    0.8736481    0.8736481    0.9178494
           0.9178494    0.9560525    0.9560525    1.2225275    1.2225275
           1.2573492    1.2573492    1.3450097    1.3450097    1.3474766
           1.3474766    1.4971252    1.4971252    1.5480429    1.5480429

           1.5952855    1.5952855    1.6959455    1.6959455    1.7630980
           1.7630980    1.7835702    1.7835702    1.8656744    1.8656744
           1.9319340    1.9319340    1.9406078    1.9406078    1.9904574
           1.9904574    2.0518892    2.0518892    2.1324578    2.1324578
           2.1828691    2.1828691    2.2354435    2.2354435    2.2549954
           2.2549954    2.3148035    2.3148035    2.3386436    2.3386436
           2.4202606    2.4202606    2.4633899    2.4633899    2.4704385
           2.4704385    2.5686772    2.5686772    2.6100336    2.6100336

           2.6797140    2.6797140    2.6971517    2.6971517    2.8232352
           2.8232352    2.9115315    2.9115315    2.9136808    2.9136808
           3.0098357    3.0098357    3.0631048    3.0631048    3.0741874
           3.0741874    3.0789173    3.0789173    3.1685935    3.1685935
           3.1704232    3.1704232    3.2204023    3.2204023    3.2453822
           3.2453822    3.2865358    3.2865358    3.3051826    3.3051826
           3.3433825    3.3433825    3.3823110    3.3823110    3.4159788
           3.4159788    3.4428910    3.4428910    3.4667036    3.4667036

           3.5034488    3.5034488    3.5466257    3.5466257    3.5549930
           3.5549930    3.6064426    3.6064426    3.6490311    3.6490311
           3.6786689    3.6786689    3.7587879    3.7587879    3.7623263
           3.7623263    3.7942677    3.7942677    3.8065493    3.8065493
           3.8404296    3.8404296    3.8623093    3.8623093    3.9078100
           3.9078100    3.9106201    3.9106201    3.9198613    3.9198613
           3.9765512    3.9765512    4.0062221    4.0062221    4.0105484
           4.0105484    4.0258073    4.0258073    4.1058596    4.1058596

           4.1651990    4.1651990    4.2908865    4.2908865    4.2999030
           4.2999030    4.3579765    4.3579765    4.3950583    4.3950583
           4.4047733    4.4047733    4.4450573    4.4450573    4.4505478
           4.4505478    4.4976018    4.4976018
       ********************************************************

------- case.scf2 --------
:GMA  : POTENTIAL AND CHARGE CUT-OFF  12.00 Ry**.5




:POS001: at.nr.  -1 position = 0.00000 0.89750 0.25000  multiplicity =  2

       lmmax 16
       lm=   0 0  1 0  2 0  2 2  3 0  3 2  4 0  4 2  4 4  5 0  5 2  5 4  6 0  6 2  6 4  6 6
:FER gutzwiller fermi energy   0.58431
:EORB         -0.276206445
:SUM sum of gutz band energies        -11.921848798

:CHA001: total charge inside sphere   1 =     9.483876
:PCS001: partial charges sphere =  1 s,p,d,f,px,py,pz,d-z2,d-x2y2,d-xy,d-xz,d-yz 
:QTL001: 1.9430 5.0353 0.5404 1.9650 1.6751 1.6764 1.6839 0.1007 0.1020 0.1174 0.1027 0.1176

                      vxx         vyy         vzz       up to r

:VZZ001:             4.55815     2.81442    -7.37256       2.300

:CHA  : total charge inside unit cell =      13.000000

------- case.scfc --------

        1.ATOM      Pr1                  14 CORE STATES
       CORE-FORCE in mRy/a.u. = |F|      Fx             Fy             Fz
:FCO001:   1.ATOM    442.411342350482      0.000000000000      0.000000000000    442.411342350482

:1S 001: 1S               -3067.051330946 Ry
:2S 001: 2S                -492.805370428 Ry
:2PP001: 2P*               -465.904292267 Ry
:2P 001: 2P                -430.506883235 Ry
:3S 001: 3S                -105.896741619 Ry
:3PP001: 3P*                -94.434512191 Ry
:3P 001: 3P                 -87.426741955 Ry
:3DD001: 3D*                -67.353608508 Ry
:3D 001: 3D                 -65.842068563 Ry
:4S 001: 4S                 -20.574859190 Ry
:4PP001: 4P*                -16.281605309 Ry
:4P 001: 4P                 -14.754173303 Ry
:4DD001: 4D*                 -7.686933215 Ry
:4D 001: 4D                  -7.417505576 Ry

------- case.scfm --------
:CINT001 Core Integral Atom   1   45.998499

       DENSITY AT NUCLEUS
        JATOM        VALENCE       SEMI-CORE          CORE           TOTAL
:RTO001:   1      649.859395        0.000000   656824.346515   657474.205910
     
       CHARGES OF NEW CHARGE DENSITY
:NTO   : INTERSTITIAL CHARGE =     7.032938
:NPC   : PW Pseudocharge     =    16.947287
:NTO001: CHARGE SPHERE  1    =    55.482375

:NEC01: NUCLEAR AND ELECTRONIC CHARGE    118.00000   117.99769
     
       CHARGES OF OLD CHARGE DENSITY
:OTO   : INTERSTITIAL CHARGE =     7.035208
:OPC   : PW Pseudocharge     =    16.952893
:OTO001: CHARGE SPHERE  1    =    55.482396

:NEC02: NUCLEAR AND ELECTRONIC CHARGE    118.00000   118.00000
     
       CONVERGENCE TEST
:DTO001: DIFFERENCE IN SPHERE  1 =  0.0000208

:DIS  :  CHARGE DISTANCE       ( 0.0000208 for atom    1 spin 1)      0.0000208
 PW Mixed is          533
 
******************************************************
* MULTISECANT MIXING VER9 RELEASE 10.4.0              *
* Standard Mode with controls                        *
* Fixed density scale                                *
* Regularization       1.000E-04                     *
* Trust Upper Limit    5.000E+00                     *
* Max Number of Memory Steps    8                    *
******************************************************
 
:PWTMP   4.1634E+02  1.9467E+02  5.1827E+02
:PLANE:  PW TOTAL      4.4844 DISTAN   1.57E-05  3.50E-04 %
:CHARG:  CLM/ATOM   1381.9561 DISTAN   8.07E-05  5.84E-06 %
 
Step History
        DMIX         DMIXT        Red     Pred      Trust     Lambda    MagRel    MagAbs     Beta
  1   3.5000E-02   3.5000E-02 -1.00E+00  1.00E+00 -1.00E+01  1.00E+00  3.50E-02  3.50E-02  1.00E+00
  2   1.5000E-01   1.5000E-01  5.98E-01  1.00E+00 -1.00E+01  1.00E+00  1.50E-01  5.49E-03  1.00E+00
  3   7.1250E-02   7.1250E-02  5.37E-01  6.07E-01  3.00E+00  5.52E-01  2.86E-01  6.24E-03  1.00E+00
  4   1.7813E-01   1.7813E-01  6.38E-01  2.54E-01  4.00E+00  2.02E+00  5.05E-01  5.94E-03  9.55E-01
  5   1.5687E-01   1.5687E-01  1.76E-01  1.70E-01  5.33E+00  1.95E+00  4.99E-01  3.75E-03  1.00E+00
  6   1.6953E-01   1.6953E-01  5.91E-01  5.40E-01  7.11E+00  1.79E+00  8.32E-01  1.10E-03  8.00E-01
  7   2.3636E-01   2.3636E-01 -1.00E+00  1.60E-01  9.48E+00  1.00E+00  4.61E-01  3.60E-04  1.00E+00
:JACOBIANS    1.337E-01   1.644E+00
  
:NORMS:  1/Froebius, Min, Max, Used   0.6113E+00  0.4109E+00  0.7552E+00  0.6113E+00
:INFO :  Number of Memory Steps    6 Skipping    0
:INFO :  SLambda=    1.6809793567  Max    1.6809793567
:PREDicted Charge, CTotal, PW Trust    7.833E-05   1.567E-04   8.753E-05
:PREDicted DMix, Beta, BLim   2.4270E-01  9.7828E-01  1.6527E+00

Eigenvalues, unscaled except for SY+YY
   #     SY Real        SY Imag          SS             YY         SY+YY Real      SY+YY Imag
   1   1.169959E+00   3.379496E-01   1.482716E+00   4.166749E+00   6.533894E+00   0.000000E+00
   2   1.169959E+00  -3.379496E-01   6.219211E-01   9.583930E-01   2.356747E+00   0.000000E+00
   3   4.387734E-01   0.000000E+00   1.372017E-01   8.711841E-01   1.776501E+00   0.000000E+00
   4   9.390542E-04   0.000000E+00   3.448163E-04   3.402668E-03   5.098303E-03   0.000000E+00
   5   4.812985E-06   0.000000E+00   7.674027E-06   2.455274E-04   3.501219E-05   0.000000E+00
   6   4.433581E-05   0.000000E+00   9.309636E-07   2.558005E-05   3.077454E-04   0.000000E+00
 
:INFO :  Singular value  7.024E+00 Weight  1.000E+00 Projection -5.861E-06
:INFO :  Singular value  2.212E+00 Weight  1.000E+00 Projection -3.548E-06
:INFO :  Singular value  1.761E+00 Weight  1.000E+00 Projection -5.203E-06
:INFO :  Singular value  5.100E-03 Weight  9.934E-01 Projection -6.166E-04
:INFO :  Singular value  3.080E-04 Weight  3.533E-01 Projection -1.080E-03
:INFO :  Singular value  3.497E-05 Weight  6.995E-03 Projection -1.584E-05
:RANK :  ACTIVE   4.35/6  =  72.56 % ; YY RANK   4.25/6  =  70.78 %
 
:DLIM :  Beta Active  9.837E-01
:BLIM :  VZERO Control Off
:TRUST:  Step 1.26E+01  Charge 3.84E-02 (e) CTO  1.28E-01 (e) PW  1.79E-01 (e)
:DIRM :  MEMORY  6/8  SCALE   1.000 RED  0.10 PRED  0.16 NEXT  0.83 BETA  0.98
:TRAVE:  Charge 2.31E-04 (e) CTO  4.62E-04 (e) PW  3.27E-04 (e)
:DIRP :  |MSR1|= 6.144E-06 |PRATT|= 1.570E-05 ANGLE=  45.6 DEGREES
:DIRQ :  |MSR1|= 3.397E-05 |PRATT|= 8.065E-05 ANGLE=  42.5 DEGREES
:DIRT :  |MSR1|= 3.453E-05 |PRATT|= 8.217E-05 ANGLE=  42.6 DEGREES
:MIX  :   MSE1   REGULARIZATION:  4.17E-04 GREED: 0.21956  Newton 1.00  0.4202                
     
       CHARGES OF MIXED CHARGE DENSITY
:CTO   : INTERSTITIAL CHARGE =     7.035210
:CPC   : PW Pseudocharge     =    16.952873
:CTO001: CHARGE SPHERE  1    =    55.482395

:NEC03: NUCLEAR AND ELECTRONIC CHARGE    118.00000   118.00000

PW CHANGE     H    K    L      Current       Change    Residue
:PTO001:      0    0    0  4.62847410E-02 -3.640E-08  1.386E-08
:PTO003:      0    2    0  1.31672673E-02  1.808E-08  1.018E-07
:PTO004:     -1    1    0  6.56791090E-02 -1.171E-07 -2.522E-07
:PTO005:      0    2   -1 -7.67459081E-02  1.156E-07  2.317E-07
:PTO006:      0    0   -2 -3.97453761E-02  6.601E-08  1.155E-07
:PTO007:     -1    1   -1 -8.40681032E-02  1.048E-07  1.837E-07
:PTO008:      0    2   -2 -1.41712385E-02 -1.219E-08 -8.939E-08
:PTO009:     -1    1   -2 -7.29796415E-02 -9.063E-09 -1.287E-07
:PTO011:     -1    3    0 -1.22331773E-02  4.946E-08  1.244E-07
:PTO012:     -1    3   -1 -5.55698718E-02  4.239E-08 -7.634E-08
:PTO013:      0    4    0 -1.03681701E-02  1.614E-08 -1.437E-08
:PTO014:      0    2   -3  2.35576508E-02 -2.582E-08  2.423E-08

:ENE  : ********** TOTAL ENERGY IN Ry =       -36944.22592705

       TOTAL FORCE IN mRy/a.u. = |F|     Fx             Fy             Fz     with/without FOR in case.in2
:FOR001:   1.ATOM         17.576          0.000          0.000        -17.576 partial forces
       TOTAL FORCE WITH RESPECT TO GLOBAL CARTESIAN COORDINATES:
:FCA001:   1.ATOM                         0.000        -17.576          0.000 partial forces
       TOTAL FORCE WITH RESPECT TO THE GLOBAL COORDINATE SYSTEM:
:FGL001:   1.ATOM                 0.000000000   -17.576082172     0.000000000 partial forces
