
:LABEL1: Calculations in /home/ykent/GWIEN/example/Pr/V12/case
:LABEL2: on didymium-2.cmpgroup.ameslab.gov at Wed Jul  8 16:02:17 CDT 2020
:LABEL3: using WIEN2k_19.1 (Release 25/6/2019) in /home/ykent/opt/src/WIEN2k_19.1
:LABEL4: using the command: run_lapw -cc 0.0001
 Flat Integration
 New Mode for Coulomb Integral
 Consistent 3/8+Simpson combinations
 Extension of core to zero
 LDM version in phi
 Fifth-order quadrature in outwin


            ---------
:ITE001:  1. ITERATION
            ---------

:NATO :    1 INDEPENDENT AND    1 TOTAL ATOMS IN UNITCELL
       SUBSTANCE: blebleble                                                   

       LATTICE                      = F   
:POT  : POTENTIAL OPTION EX_LDA EC_LDA VX_LDA VC_LDA
:LAT  : LATTICE CONSTANTS=  9.95603  9.95603  9.95603    1.571    1.571    1.571
:VOL  : UNIT CELL VOLUME =     246.71680
       MODE OF CALCULATION IS       = RELA
       NON-SPINPOLARIZED CALCULATION
:IFFT  : FFT-parameters:   80   80   80 Factor: 2.00


   CONVERGENCE PARAMETER FOR PSEUDOCHARGE: NCON=  9
   MAXIMAL VALUE OF RMT(JATOM)*ABSK(NKK) : RK  =29.93539


:VKCOUL :  VK-COUL convergence: 0.159E-05
       ATOMNUMBER=  1 Pr         VCOUL-ZERO =  0.21488E+00
:FIT001: LUSE= 13 SIGMA OF V-XC FIT FOR ATOM  1  0.1266777E-05
:FIT001: LUSE= 13 SIGMA OF V-XC FIT FOR ATOM  1  0.1266777E-05
:DEN  : DENSITY INTEGRAL  =         -7071.51744968   (Ry)
       ELS_POTENTIAL_AT Z=0 and Z=0.5:  -2.38717  -2.38717
       ELS_POTENTIAL_AT Y=0 and Y=0.5:   0.00000   0.00000
:VZERO:v0,v0c,v0x  -3.33691  -2.38717  -0.94975 v5,v5c,v5x  -3.33691  -2.38717  -0.94975
:VZERY:v0,v0c,v0x  -0.69839   0.00000  -0.69839 v5,v5c,v5x  -0.69839   0.00000  -0.69839
:VZERX:v0,v0c,v0x  -0.69839   0.00000  -0.69839 v5,v5c,v5x  -0.69839   0.00000  -0.69839
:LMAX-WF:   10   Non-Spherical LMAX:   4

          ATOMIC SPHERE DEPENDENT PARAMETERS FOR ATOM  Pr        
:e__0001: OVERALL ENERGY PARAMETER IS    0.3000
          OVERALL BASIS SET ON ATOM IS LAPW
:E0_0001: E( 0)=    0.3000
             APW+lo
:E0_0001: E( 0)=   -2.1108   E(BOTTOM)=   -2.493   E(TOP)=   -1.728  4  5   172
             LOCAL ORBITAL
:E1_0001: E( 1)=    0.7000
             APW+lo
:E1_0001: E( 1)=   -0.7242   E(BOTTOM)=   -1.373   E(TOP)=   -0.076  3  4   168
             LOCAL ORBITAL
:E3_0001: E( 3)=    0.5646   E(BOTTOM)=    0.421   E(TOP)=    0.708  0  1   120
             APW+lo
:E2_0001: E( 2)=    0.3000   E(BOTTOM)=    0.201   E(TOP)= -200.000  2 -1    88
             APW+lo

       K=   0.00000   0.00000   0.00000            1
:RKM  : MATRIX SIZE   189LOs:  20  RKM= 8.20  WEIGHT= 1.00  PGR:    
       EIGENVALUES ARE:
:EIG00001:      -2.0714116   -0.7071763   -0.7071763   -0.7071763    0.3011977
:EIG00006:       0.5599075    0.5790654    0.5790654    0.5790654    0.6038852
:EIG00011:       0.6038852    0.6038852    0.6852161    0.6852161    0.6852161
:EIG00016:       0.8554874    0.8554874    1.2539897    1.4767808    1.4767808
:EIG00021:       1.4767808    1.5821694
       ********************************************************

:KPT   :      NUMBER OF K-POINTS:   165
:GAP (global)   :    0.0    Ry =     0.0   eV (metal)
         Bandranges (emin - emax) and occupancy:
:BAN00001:   1   -2.071412   -2.058500  2.00000000
:BAN00002:   2   -0.787361   -0.707176  2.00000000
:BAN00003:   3   -0.759193   -0.707176  2.00000000
:BAN00004:   4   -0.736843   -0.707176  2.00000000
:BAN00005:   5    0.301198    0.533029  2.00000000
:BAN00006:   6    0.482094    0.567734  2.00000000
:BAN00007:   7    0.553934    0.583999  1.00000000
:BAN00008:   8    0.573046    0.586078  0.00000000
:BAN00009:   9    0.579065    0.588968  0.00000000
:BAN00010:  10    0.584918    0.603885  0.00000000
:BAN00011:  11    0.588011    0.603885  0.00000000
:BAN00012:  12    0.591570    0.606781  0.00000000
        Energy to separate low and high energystates:    0.25120


:NOE  : NUMBER OF ELECTRONS          =   13.000

:FER  : F E R M I - ENERGY(TETRAH.M.)=   0.5720703111
:GMA  : POTENTIAL AND CHARGE CUT-OFF  12.00 Ry**.5

:POS001: ATOM    1 X,Y,Z = 0.00000 0.00000 0.50000  MULT= 1  ZZ= 59.000  Pr        

       LMMAX  5
       LM=   0 0  4 0  4 4  6 0  6 4

:CHA001: TOTAL VALENCE CHARGE INSIDE SPHERE   1 =   9.8278    (RMT=  2.5000 )
:PCS001: PARTIAL CHARGES SPHERE =  1 S,P,D,F,      D-EG,D-T2G 
:QTL001: 2.0320 5.3620 0.7058 1.7277 0.0000 0.0000 0.0000 0.2477 0.4581 0.0000 0.0000 0.0000
        Q-s-low E-s-low   Q-p-low E-p-low   Q-d-low E-d-low   Q-f-low E-f-low
:EPL001:  1.9249 -2.0611    5.2795 -0.7409    0.0012 -0.7565    0.0003 -0.7586
        Q-s-hi  E-s-hi    Q-p-hi  E-p-hi    Q-d-hi  E-d-hi    Q-f-hi  E-f-hi 
:EPH001:  0.1072  0.4548    0.0824  0.5032    0.7046  0.5133    1.7274  0.5554

:CHA  : TOTAL VALENCE CHARGE INSIDE UNIT CELL =      13.000000

:SUM  : SUM OF EIGENVALUES =          -5.975523594


        1.ATOM      Pr                   14 CORE STATES
:1S 001: 1S               -3066.993950315 Ry
:2S 001: 2S                -492.759611388 Ry
:2PP001: 2P*               -465.857252093 Ry
:2P 001: 2P                -430.460446628 Ry
:3S 001: 3S                -105.857034714 Ry
:3PP001: 3P*                -94.394460054 Ry
:3P 001: 3P                 -87.387057964 Ry
:3DD001: 3D*                -67.313445618 Ry
:3D 001: 3D                 -65.802016229 Ry
:4S 001: 4S                 -20.541980625 Ry
:4PP001: 4P*                -16.248965077 Ry
:4P 001: 4P                 -14.721936554 Ry
:4DD001: 4D*                 -7.655656538 Ry
:4D 001: 4D                  -7.386393040 Ry
:CINT001 Core Integral Atom   1   45.999513

       DENSITY AT NUCLEUS
        JATOM        VALENCE       SEMI-CORE          CORE           TOTAL
:RTO001:   1      650.695113        0.000000   656820.973048   657471.668161
     
       CHARGES OF NEW CHARGE DENSITY
:NTO   : INTERSTITIAL CHARGE =     3.172185
:NPC   : PW Pseudocharge     =     7.710341
:NTO001: CHARGE SPHERE  1    =    55.827327

:NEC01: NUCLEAR AND ELECTRONIC CHARGE     59.00000    58.99951
     
       CHARGES OF OLD CHARGE DENSITY
:OTO   : INTERSTITIAL CHARGE =     2.904985
:OPC   : PW Pseudocharge     =     6.935479
:OTO001: CHARGE SPHERE  1    =    56.095671

:NEC02: NUCLEAR AND ELECTRONIC CHARGE     59.00000    59.00066
     
       CONVERGENCE TEST
:DTO001: DIFFERENCE IN SPHERE  1 =  0.4478119

:DIS  :  CHARGE DISTANCE       ( 0.4478119 for atom    1 spin 1)      0.4478119
 PW Mixed is           55
 
******************************************************
* MULTISECANT MIXING VER9 RELEASE 10.4.0              *
* Standard Mode with controls                        *
* Fixed density scale                                *
* Regularization       1.000E-04                     *
* Trust Upper Limit    5.000E+00                     *
* Max Number of Memory Steps    8                    *
******************************************************
 
:PWTMP   1.8127E+02  1.2500E+02  2.4672E+02
:PLANE:  PW TOTAL      2.6360 DISTAN   4.07E-01  1.54E+01 %
:CHARG:  CLM/ATOM    977.2577 DISTAN   7.10E-01  7.26E-02 %
 
Step History
        DMIX         DMIXT        Red     Pred      Trust     Lambda    MagRel    MagAbs     Beta
  1   3.5000E-02   3.5000E-02 -1.00E+00  1.00E+00 -1.00E+01  1.00E+00  3.50E-02  3.50E-02  1.00E+00
:INFO :  Note, Pratt in use
:TRUST:  Step 3.75E-02  Charge 7.50E-02 (e) CTO  2.50E-01 (e) PW  3.50E-01 (e)
:DIRM :  MEMORY  0/ 8 SCALE   1.000
Performing Pseudo Compensation
Final Pseudo Compensation Rescaling     1.00000E+00
:MIX  :   PRATT  REGULARIZATION:  1.00E-04 GREED: 0.02500                  
     
       CHARGES OF MIXED CHARGE DENSITY
:CTO   : INTERSTITIAL CHARGE =     2.911038
:CPC   : PW Pseudocharge     =     7.490448
:CTO001: CHARGE SPHERE  1    =    56.088962

:NEC03: NUCLEAR AND ELECTRONIC CHARGE     59.00000    59.00000

PW CHANGE     H    K    L      Current       Change    Residue
:PTO001:      0    0    0  4.21596176E-02  2.283E-03  4.239E-03
:PTO002:     -1   -1   -1 -1.30293195E-01 -1.332E-02 -1.620E-02
:PTO003:      0    0   -2  7.74743667E-02  8.990E-03  9.966E-03
:PTO004:      0   -2   -2  6.40295146E-02  1.176E-02  1.553E-02
:PTO005:     -1   -1   -3 -6.28053472E-02 -1.649E-02 -1.681E-02
:PTO006:     -2   -2   -2  1.61602995E-02  4.863E-03  4.752E-03
:PTO007:      0    0   -4  3.37339689E-03  2.134E-03  1.162E-03
:PTO008:     -1   -3   -3 -1.79574406E-03 -5.478E-03 -5.008E-03
:PTO009:      0   -2   -4 -5.52644032E-04  4.614E-03  3.506E-03
:PTO010:     -2   -2   -4 -5.21441922E-03  2.001E-03  3.143E-04
:PTO011:     -3   -3   -3  1.96871346E-03 -2.314E-04  5.160E-04
:PTO012:     -1   -1   -5  5.90368872E-03 -6.966E-04  1.450E-03

:ENE  : ********** TOTAL ENERGY IN Ry =       -18472.08411063

 Flat Integration
 New Mode for Coulomb Integral
 Consistent 3/8+Simpson combinations
 Extension of core to zero
 LDM version in phi
 Fifth-order quadrature in outwin


            ---------
:ITE002:  2. ITERATION
            ---------

:NATO :    1 INDEPENDENT AND    1 TOTAL ATOMS IN UNITCELL
       SUBSTANCE: blebleble                                                   

       LATTICE                      = F   
:POT  : POTENTIAL OPTION EX_LDA EC_LDA VX_LDA VC_LDA
:LAT  : LATTICE CONSTANTS=  9.95603  9.95603  9.95603    1.571    1.571    1.571
:VOL  : UNIT CELL VOLUME =     246.71680
       MODE OF CALCULATION IS       = RELA
       NON-SPINPOLARIZED CALCULATION
:IFFT  : FFT-parameters:   80   80   80 Factor: 2.00


   CONVERGENCE PARAMETER FOR PSEUDOCHARGE: NCON=  9
   MAXIMAL VALUE OF RMT(JATOM)*ABSK(NKK) : RK  =29.93539


:VKCOUL :  VK-COUL convergence: 0.587E-07
       ATOMNUMBER=  1 Pr         VCOUL-ZERO =  0.22103E+00
:FIT001: LUSE= 13 SIGMA OF V-XC FIT FOR ATOM  1  0.1286121E-05
:FIT001: LUSE= 13 SIGMA OF V-XC FIT FOR ATOM  1  0.1286121E-05
:DEN  : DENSITY INTEGRAL  =         -7071.15495874   (Ry)
       ELS_POTENTIAL_AT Z=0 and Z=0.5:  -2.43581  -2.43581
       ELS_POTENTIAL_AT Y=0 and Y=0.5:   0.00000   0.00000
:VZERO:v0,v0c,v0x  -3.40789  -2.43581  -0.97208 v5,v5c,v5x  -3.40789  -2.43581  -0.97208
:VZERY:v0,v0c,v0x  -0.70310   0.00000  -0.70310 v5,v5c,v5x  -0.70310   0.00000  -0.70310
:VZERX:v0,v0c,v0x  -0.70310   0.00000  -0.70310 v5,v5c,v5x  -0.70310   0.00000  -0.70310
:LMAX-WF:   10   Non-Spherical LMAX:   4

          ATOMIC SPHERE DEPENDENT PARAMETERS FOR ATOM  Pr        
:e__0001: OVERALL ENERGY PARAMETER IS    0.3480
          OVERALL BASIS SET ON ATOM IS LAPW
:E0_0001: E( 0)=    0.3480
             APW+lo
:E0_0001: E( 0)=   -2.1097   E(BOTTOM)=   -2.491   E(TOP)=   -1.728  4  5   170
             LOCAL ORBITAL
:E1_0001: E( 1)=    0.7480
             APW+lo
:E1_0001: E( 1)=   -0.7224   E(BOTTOM)=   -1.370   E(TOP)=   -0.075  3  4   163
             LOCAL ORBITAL
:E3_0001: E( 3)=    0.5619   E(BOTTOM)=    0.420   E(TOP)=    0.704  0  1   122
             APW+lo
:E2_0001: E( 2)=    0.3480   E(BOTTOM)=    0.204   E(TOP)= -200.000  2 -1    91
             APW+lo

       K=   0.00000   0.00000   0.00000            1
:RKM  : MATRIX SIZE   189LOs:  20  RKM= 8.20  WEIGHT= 1.00  PGR:    
       EIGENVALUES ARE:
:EIG00001:      -2.0702098   -0.7049833   -0.7049833   -0.7049833    0.3071190
:EIG00006:       0.5580683    0.5766657    0.5766657    0.5766657    0.6009469
:EIG00011:       0.6009469    0.6009469    0.6901746    0.6901746    0.6901746
:EIG00016:       0.8598941    0.8598941    1.2590584    1.4823725    1.4823725
:EIG00021:       1.4823725    1.5888188
       ********************************************************

:KPT   :      NUMBER OF K-POINTS:   165
:GAP (global)   :    0.0    Ry =     0.0   eV (metal)
         Bandranges (emin - emax) and occupancy:
:BAN00001:   1   -2.070210   -2.057387  2.00000000
:BAN00002:   2   -0.784662   -0.704983  2.00000000
:BAN00003:   3   -0.756670   -0.704983  2.00000000
:BAN00004:   4   -0.734463   -0.704983  2.00000000
:BAN00005:   5    0.307119    0.535857  2.00000000
:BAN00006:   6    0.487547    0.568539  2.00000000
:BAN00007:   7    0.554374    0.581586  1.00000000
:BAN00008:   8    0.571613    0.583695  0.00000000
:BAN00009:   9    0.576666    0.586733  0.00000000
:BAN00010:  10    0.582551    0.600947  0.00000000
:BAN00011:  11    0.585477    0.600947  0.00000000
:BAN00012:  12    0.588905    0.605090  0.00000000
        Energy to separate low and high energystates:    0.25712


:NOE  : NUMBER OF ELECTRONS          =   13.000

:FER  : F E R M I - ENERGY(TETRAH.M.)=   0.5706780342
:GMA  : POTENTIAL AND CHARGE CUT-OFF  12.00 Ry**.5

:POS001: ATOM    1 X,Y,Z = 0.00000 0.00000 0.50000  MULT= 1  ZZ= 59.000  Pr        

       LMMAX  5
       LM=   0 0  4 0  4 4  6 0  6 4

:CHA001: TOTAL VALENCE CHARGE INSIDE SPHERE   1 =   9.9169    (RMT=  2.5000 )
:PCS001: PARTIAL CHARGES SPHERE =  1 S,P,D,F,      D-EG,D-T2G 
:QTL001: 2.0312 5.3593 0.6709 1.8552 0.0000 0.0000 0.0000 0.2363 0.4346 0.0000 0.0000 0.0000
        Q-s-low E-s-low   Q-p-low E-p-low   Q-d-low E-d-low   Q-f-low E-f-low
:EPL001:  1.9252 -2.0600    5.2828 -0.7385    0.0011 -0.7541    0.0003 -0.7562
        Q-s-hi  E-s-hi    Q-p-hi  E-p-hi    Q-d-hi  E-d-hi    Q-f-hi  E-f-hi 
:EPH001:  0.1060  0.4591    0.0765  0.5038    0.6697  0.5152    1.8549  0.5552

:CHA  : TOTAL VALENCE CHARGE INSIDE UNIT CELL =      13.000000

:SUM  : SUM OF EIGENVALUES =          -5.945699416


        1.ATOM      Pr                   14 CORE STATES
:1S 001: 1S               -3067.004967194 Ry
:2S 001: 2S                -492.770219370 Ry
:2PP001: 2P*               -465.867917935 Ry
:2P 001: 2P                -430.471087321 Ry
:3S 001: 3S                -105.866906044 Ry
:3PP001: 3P*                -94.404384675 Ry
:3P 001: 3P                 -87.396902967 Ry
:3DD001: 3D*                -67.323442335 Ry
:3D 001: 3D                 -65.811991279 Ry
:4S 001: 4S                 -20.548485993 Ry
:4PP001: 4P*                -16.255274763 Ry
:4P 001: 4P                 -14.727938622 Ry
:4DD001: 4D*                 -7.661112471 Ry
:4D 001: 4D                  -7.391743566 Ry
:CINT001 Core Integral Atom   1   45.999516

       DENSITY AT NUCLEUS
        JATOM        VALENCE       SEMI-CORE          CORE           TOTAL
:RTO001:   1      650.948689        0.000000   656821.740684   657472.689373
     
       CHARGES OF NEW CHARGE DENSITY
:NTO   : INTERSTITIAL CHARGE =     3.083114
:NPC   : PW Pseudocharge     =     7.679195
:NTO001: CHARGE SPHERE  1    =    55.916401

:NEC01: NUCLEAR AND ELECTRONIC CHARGE     59.00000    58.99952
     
       CHARGES OF OLD CHARGE DENSITY
:OTO   : INTERSTITIAL CHARGE =     2.911038
:OPC   : PW Pseudocharge     =     7.490448
:OTO001: CHARGE SPHERE  1    =    56.088962

:NEC02: NUCLEAR AND ELECTRONIC CHARGE     59.00000    59.00000
     
       CONVERGENCE TEST
:DTO001: DIFFERENCE IN SPHERE  1 =  0.2869786

:DIS  :  CHARGE DISTANCE       ( 0.2869786 for atom    1 spin 1)      0.2869786
 PW Mixed is           55
 
******************************************************
* MULTISECANT MIXING VER9 RELEASE 10.4.0              *
* Slow Mode, cautious                                *
* Fixed density scale                                *
* Regularization       1.000E-04                     *
* Step Trust Radius    0.75000                       *
* Trust Upper Limit    2.000E+00                     *
* Max Number of Memory Steps   12                    *
******************************************************
 
:PWTMP   1.8127E+02  1.2500E+02  2.4672E+02
:PLANE:  PW TOTAL      2.9252 DISTAN   9.17E-02  3.14E+00 %
:CHARG:  CLM/ATOM    977.2549 DISTAN   6.21E-01  6.36E-02 %
 
Step History
        DMIX         DMIXT        Red     Pred      Trust     Lambda    MagRel    MagAbs     Beta
  1   3.5000E-02   3.5000E-02 -1.00E+00  1.00E+00 -1.00E+01  1.00E+00  3.50E-02  3.50E-02  1.00E+00
  2   2.5000E-02   2.5000E-02 -1.00E+00  1.00E+00 -1.00E+01  1.00E+00  2.50E-02  2.05E-02  1.00E+00
:JACOBIANS    3.970E-01   6.503E-03
  
:TRUST:  Step 2.95E-02  Charge 7.50E-02 (e) CTO  2.50E-01 (e) PW  3.50E-01 (e)
:DIRM :  MEMORY  1/12 SCALE   1.000
:MIX  :   PRATT  REGULARIZATION:  1.00E-04 GREED: 0.02945  Expand 1.18  0.0295                
     
       CHARGES OF MIXED CHARGE DENSITY
:CTO   : INTERSTITIAL CHARGE =     2.914218
:CPC   : PW Pseudocharge     =     7.754275
:CTO001: CHARGE SPHERE  1    =    56.085782

:NEC03: NUCLEAR AND ELECTRONIC CHARGE     59.00000    59.00000

PW CHANGE     H    K    L      Current       Change    Residue
:PTO001:      0    0    0  4.32418581E-02  1.082E-03  1.469E-03
:PTO002:     -1   -1   -1 -1.36608726E-01 -6.316E-03 -2.880E-03
:PTO003:      0    0   -2  8.17359302E-02  4.262E-03  1.077E-03
:PTO004:      0   -2   -2  6.96027486E-02  5.573E-03  3.741E-03
:PTO005:     -1   -1   -3 -7.06233685E-02 -7.818E-03 -4.905E-04
:PTO006:     -2   -2   -2  1.84656594E-02  2.305E-03 -7.281E-05
:PTO007:      0    0   -4  4.38479172E-03  1.011E-03 -9.096E-04
:PTO008:     -1   -3   -3 -4.39248754E-03 -2.597E-03  4.232E-04
:PTO009:      0   -2   -4  1.63451497E-03  2.187E-03 -1.017E-03
:PTO010:     -2   -2   -4 -4.26578849E-03  9.486E-04 -1.632E-03
:PTO011:     -3   -3   -3  1.85903293E-03 -1.097E-04  7.378E-04
:PTO012:     -1   -1   -5  5.57348491E-03 -3.302E-04  2.059E-03

:ENE  : ********** TOTAL ENERGY IN Ry =       -18472.08131404

 Flat Integration
 New Mode for Coulomb Integral
 Consistent 3/8+Simpson combinations
 Extension of core to zero
 LDM version in phi
 Fifth-order quadrature in outwin


            ---------
:ITE003:  3. ITERATION
            ---------

:NATO :    1 INDEPENDENT AND    1 TOTAL ATOMS IN UNITCELL
       SUBSTANCE: blebleble                                                   

       LATTICE                      = F   
:POT  : POTENTIAL OPTION EX_LDA EC_LDA VX_LDA VC_LDA
:LAT  : LATTICE CONSTANTS=  9.95603  9.95603  9.95603    1.571    1.571    1.571
:VOL  : UNIT CELL VOLUME =     246.71680
       MODE OF CALCULATION IS       = RELA
       NON-SPINPOLARIZED CALCULATION
:IFFT  : FFT-parameters:   80   80   80 Factor: 2.00


   CONVERGENCE PARAMETER FOR PSEUDOCHARGE: NCON=  9
   MAXIMAL VALUE OF RMT(JATOM)*ABSK(NKK) : RK  =29.93539


:VKCOUL :  VK-COUL convergence: 0.598E-07
       ATOMNUMBER=  1 Pr         VCOUL-ZERO =  0.22396E+00
:FIT001: LUSE= 13 SIGMA OF V-XC FIT FOR ATOM  1  0.1303996E-05
:FIT001: LUSE= 13 SIGMA OF V-XC FIT FOR ATOM  1  0.1303996E-05
:DEN  : DENSITY INTEGRAL  =         -7070.98409205   (Ry)
       ELS_POTENTIAL_AT Z=0 and Z=0.5:  -2.45911  -2.45911
       ELS_POTENTIAL_AT Y=0 and Y=0.5:   0.00000   0.00000
:VZERO:v0,v0c,v0x  -3.44108  -2.45911  -0.98197 v5,v5c,v5x  -3.44108  -2.45911  -0.98197
:VZERY:v0,v0c,v0x  -0.70525   0.00000  -0.70525 v5,v5c,v5x  -0.70525   0.00000  -0.70525
:VZERX:v0,v0c,v0x  -0.70525   0.00000  -0.70525 v5,v5c,v5x  -0.70525   0.00000  -0.70525
:LMAX-WF:   10   Non-Spherical LMAX:   4

          ATOMIC SPHERE DEPENDENT PARAMETERS FOR ATOM  Pr        
:e__0001: OVERALL ENERGY PARAMETER IS    0.3631
          OVERALL BASIS SET ON ATOM IS LAPW
:E0_0001: E( 0)=    0.3631
             APW+lo
:E0_0001: E( 0)=   -2.1091   E(BOTTOM)=   -2.490   E(TOP)=   -1.728  4  5   175
             LOCAL ORBITAL
:E1_0001: E( 1)=    0.7631
             APW+lo
:E1_0001: E( 1)=   -0.7215   E(BOTTOM)=   -1.369   E(TOP)=   -0.074  3  4   165
             LOCAL ORBITAL
:E3_0001: E( 3)=    0.5607   E(BOTTOM)=    0.419   E(TOP)=    0.702  0  1   120
             APW+lo
:E2_0001: E( 2)=    0.3631   E(BOTTOM)=    0.206   E(TOP)= -200.000  2 -1    91
             APW+lo

       K=   0.00000   0.00000   0.00000            1
:RKM  : MATRIX SIZE   189LOs:  20  RKM= 8.20  WEIGHT= 1.00  PGR:    
       EIGENVALUES ARE:
:EIG00001:      -2.0696242   -0.7039244   -0.7039244   -0.7039244    0.3099716
:EIG00006:       0.5572000    0.5755359    0.5755359    0.5755359    0.5995649
:EIG00011:       0.5995649    0.5995649    0.6925611    0.6925611    0.6925611
:EIG00016:       0.8620223    0.8620223    1.2615167    1.4850764    1.4850764
:EIG00021:       1.4850764    1.5920295
       ********************************************************

:KPT   :      NUMBER OF K-POINTS:   165
:GAP (global)   :    0.0    Ry =     0.0   eV (metal)
         Bandranges (emin - emax) and occupancy:
:BAN00001:   1   -2.069624   -2.056844  2.00000000
:BAN00002:   2   -0.783361   -0.703924  2.00000000
:BAN00003:   3   -0.755454   -0.703924  2.00000000
:BAN00004:   4   -0.733315   -0.703924  2.00000000
:BAN00005:   5    0.309972    0.537099  2.00000000
:BAN00006:   6    0.490168    0.568278  2.00000000
:BAN00007:   7    0.554496    0.580413  1.00000000
:BAN00008:   8    0.570939    0.582566  0.00000000
:BAN00009:   9    0.575536    0.585666  0.00000000
:BAN00010:  10    0.581432    0.599565  0.00000000
:BAN00011:  11    0.584283    0.599565  0.00000000
:BAN00012:  12    0.587651    0.604504  0.00000000
        Energy to separate low and high energystates:    0.25997


:NOE  : NUMBER OF ELECTRONS          =   13.000

:FER  : F E R M I - ENERGY(TETRAH.M.)=   0.5699799845
:GMA  : POTENTIAL AND CHARGE CUT-OFF  12.00 Ry**.5

:POS001: ATOM    1 X,Y,Z = 0.00000 0.00000 0.50000  MULT= 1  ZZ= 59.000  Pr        

       LMMAX  5
       LM=   0 0  4 0  4 4  6 0  6 4

:CHA001: TOTAL VALENCE CHARGE INSIDE SPHERE   1 =   9.9609    (RMT=  2.5000 )
:PCS001: PARTIAL CHARGES SPHERE =  1 S,P,D,F,      D-EG,D-T2G 
:QTL001: 2.0308 5.3580 0.6536 1.9182 0.0000 0.0000 0.0000 0.2307 0.4229 0.0000 0.0000 0.0000
        Q-s-low E-s-low   Q-p-low E-p-low   Q-d-low E-d-low   Q-f-low E-f-low
:EPL001:  1.9253 -2.0594    5.2844 -0.7373    0.0011 -0.7530    0.0003 -0.7550
        Q-s-hi  E-s-hi    Q-p-hi  E-p-hi    Q-d-hi  E-d-hi    Q-f-hi  E-f-hi 
:EPH001:  0.1054  0.4611    0.0737  0.5040    0.6525  0.5161    1.9179  0.5550

:CHA  : TOTAL VALENCE CHARGE INSIDE UNIT CELL =      13.000000

:SUM  : SUM OF EIGENVALUES =          -5.931640079


        1.ATOM      Pr                   14 CORE STATES
:1S 001: 1S               -3067.010176279 Ry
:2S 001: 2S                -492.775234615 Ry
:2PP001: 2P*               -465.872960609 Ry
:2P 001: 2P                -430.476118072 Ry
:3S 001: 3S                -105.871572073 Ry
:3PP001: 3P*                -94.409075967 Ry
:3P 001: 3P                 -87.401556516 Ry
:3DD001: 3D*                -67.328167806 Ry
:3D 001: 3D                 -65.816706480 Ry
:4S 001: 4S                 -20.551556479 Ry
:4PP001: 4P*                -16.258252531 Ry
:4P 001: 4P                 -14.730770594 Ry
:4DD001: 4D*                 -7.663685775 Ry
:4D 001: 4D                  -7.394266921 Ry
:CINT001 Core Integral Atom   1   45.999517

       DENSITY AT NUCLEUS
        JATOM        VALENCE       SEMI-CORE          CORE           TOTAL
:RTO001:   1      651.052878        0.000000   656822.104544   657473.157422
     
       CHARGES OF NEW CHARGE DENSITY
:NTO   : INTERSTITIAL CHARGE =     3.039104
:NPC   : PW Pseudocharge     =     7.663806
:NTO001: CHARGE SPHERE  1    =    55.960412

:NEC01: NUCLEAR AND ELECTRONIC CHARGE     59.00000    58.99952
     
       CHARGES OF OLD CHARGE DENSITY
:OTO   : INTERSTITIAL CHARGE =     2.914218
:OPC   : PW Pseudocharge     =     7.754275
:OTO001: CHARGE SPHERE  1    =    56.085782

:NEC02: NUCLEAR AND ELECTRONIC CHARGE     59.00000    59.00000
     
       CONVERGENCE TEST
:DTO001: DIFFERENCE IN SPHERE  1 =  0.2104796

:DIS  :  CHARGE DISTANCE       ( 0.2104796 for atom    1 spin 1)      0.2104796
 PW Mixed is           55
 
******************************************************
* MULTISECANT MIXING VER9 RELEASE 10.4.0              *
* Slow Mode, cautious                                *
* Fixed density scale                                *
* Regularization       1.000E-04                     *
* Step Trust Radius    0.75000                       *
* Trust Upper Limit    2.000E+00                     *
* Max Number of Memory Steps   12                    *
******************************************************
 
:PWTMP   1.8127E+02  1.2500E+02  2.4672E+02
:PLANE:  PW TOTAL      3.0654 DISTAN   1.16E-01  3.77E+00 %
:CHARG:  CLM/ATOM    977.2535 DISTAN   5.88E-01  6.02E-02 %
 
Step History
        DMIX         DMIXT        Red     Pred      Trust     Lambda    MagRel    MagAbs     Beta
  1   3.5000E-02   3.5000E-02 -1.00E+00  1.00E+00 -1.00E+01  1.00E+00  3.50E-02  3.50E-02  1.00E+00
  2   2.5000E-02   2.5000E-02  7.67E-01  1.00E+00 -1.00E+01  1.00E+00  2.50E-02  2.05E-02  1.00E+00
  3   2.9454E-02   2.9454E-02 -1.00E+00  1.00E+00 -1.00E+01  1.00E+00  2.95E-02  1.85E-02  1.00E+00
:JACOBIANS    6.036E-01   9.731E-03
  
:NORMS:  1/Froebius, Min, Max, Used   0.8826E+00  0.4523E+00  0.9046E+00  0.8826E+00
:INFO :  Number of Memory Steps    2 Skipping    0
:INFO :  SLambda=    0.0886802079  Max    0.0886802079
:PREDicted Charge, CTotal, PW Trust    2.668E-03   2.668E-03   1.135E-01
:PREDicted DMix, Beta, BLim   2.1831E-02  8.1412E-01  2.4440E-01

Eigenvalues, unscaled except for SY+YY
   #     SY Real        SY Imag          SS             YY         SY+YY Real      SY+YY Imag
   1   1.597843E+00   0.000000E+00   1.557914E+00   1.999899E+00   2.141595E+00   0.000000E+00
   2   1.509903E-14   0.000000E+00   0.000000E+00   1.011244E-04   1.020093E-04   0.000000E+00
 
:INFO :  Singular value  2.142E+00 Weight  1.000E+00 Projection  6.084E-04
:INFO :  Singular value  1.020E-04 Weight  2.065E-01 Projection -8.624E+00
:RANK :  ACTIVE   1.21/2  =  60.32 % ; YY RANK   1.20/2  =  60.18 %
 
:DLIM :  Beta Active  8.606E-01
:BLIM :  VZERO Control Off
:TRUST:  Step 2.01E-01  Charge 7.50E-02 (e) CTO  2.50E-01 (e) PW  3.50E-01 (e)
:DIRM :  MEMORY  2/12 SCALE   1.000 RED  0.95 PRED  1.00 NEXT  0.92 BETA  0.86
:TRAVE:  Charge 1.88E-03 (e) CTO  1.88E-03 (e) PW  2.12E-02 (e)
:DIRP :  |MSR1|= 2.724E-02 |PRATT|= 1.156E-01 ANGLE=  29.0 DEGREES
:DIRQ :  |MSR1|= 1.256E-02 |PRATT|= 5.883E-01 ANGLE=   8.5 DEGREES
:DIRT :  |MSR1|= 2.999E-02 |PRATT|= 5.995E-01 ANGLE=  56.0 DEGREES
:MIX  :   MSD1   REGULARIZATION:  2.00E-04 GREED: 0.02578  Newton 1.00  0.0500                
     
       CHARGES OF MIXED CHARGE DENSITY
:CTO   : INTERSTITIAL CHARGE =     2.916100
:CPC   : PW Pseudocharge     =     7.710477
:CTO001: CHARGE SPHERE  1    =    56.083900

:NEC03: NUCLEAR AND ELECTRONIC CHARGE     59.00000    59.00000

PW CHANGE     H    K    L      Current       Change    Residue
:PTO001:      0    0    0  4.30719621E-02 -1.699E-04  1.464E-04
:PTO002:     -1   -1   -1 -1.35534719E-01  1.074E-03  3.433E-03
:PTO003:      0    0   -2  8.09903812E-02 -7.455E-04 -3.136E-03
:PTO004:      0   -2   -2  6.86850976E-02 -9.177E-04 -1.845E-03
:PTO005:     -1   -1   -3 -6.92183921E-02  1.405E-03  7.243E-03
:PTO006:     -2   -2   -2  1.80472166E-02 -4.184E-04 -2.356E-03
:PTO007:      0    0   -4  4.17887736E-03 -2.059E-04 -1.890E-03
:PTO008:     -1   -3   -3 -3.91022167E-03  4.823E-04  2.997E-03
:PTO009:      0   -2   -4  1.21149394E-03 -4.230E-04 -3.161E-03
:PTO010:     -2   -2   -4 -4.47833720E-03 -2.125E-04 -2.552E-03
:PTO011:     -3   -3   -3  1.89694936E-03  3.792E-05  8.414E-04
:PTO012:     -1   -1   -5  5.68413535E-03  1.107E-04  2.345E-03

:ENE  : ********** TOTAL ENERGY IN Ry =       -18472.08042469

 Flat Integration
 New Mode for Coulomb Integral
 Consistent 3/8+Simpson combinations
 Extension of core to zero
 LDM version in phi
 Fifth-order quadrature in outwin


            ---------
:ITE004:  4. ITERATION
            ---------

:NATO :    1 INDEPENDENT AND    1 TOTAL ATOMS IN UNITCELL
       SUBSTANCE: blebleble                                                   

       LATTICE                      = F   
:POT  : POTENTIAL OPTION EX_LDA EC_LDA VX_LDA VC_LDA
:LAT  : LATTICE CONSTANTS=  9.95603  9.95603  9.95603    1.571    1.571    1.571
:VOL  : UNIT CELL VOLUME =     246.71680
       MODE OF CALCULATION IS       = RELA
       NON-SPINPOLARIZED CALCULATION
:IFFT  : FFT-parameters:   80   80   80 Factor: 2.00


   CONVERGENCE PARAMETER FOR PSEUDOCHARGE: NCON=  9
   MAXIMAL VALUE OF RMT(JATOM)*ABSK(NKK) : RK  =29.93539


:VKCOUL :  VK-COUL convergence: 0.587E-07
       ATOMNUMBER=  1 Pr         VCOUL-ZERO =  0.22344E+00
:FIT001: LUSE= 13 SIGMA OF V-XC FIT FOR ATOM  1  0.1362070E-05
:FIT001: LUSE= 13 SIGMA OF V-XC FIT FOR ATOM  1  0.1362070E-05
:DEN  : DENSITY INTEGRAL  =         -7070.75901844   (Ry)
       ELS_POTENTIAL_AT Z=0 and Z=0.5:  -2.45689  -2.45689
       ELS_POTENTIAL_AT Y=0 and Y=0.5:   0.00000   0.00000
:VZERO:v0,v0c,v0x  -3.43697  -2.45689  -0.98008 v5,v5c,v5x  -3.43697  -2.45689  -0.98008
:VZERY:v0,v0c,v0x  -0.70502   0.00000  -0.70502 v5,v5c,v5x  -0.70502   0.00000  -0.70502
:VZERX:v0,v0c,v0x  -0.70502   0.00000  -0.70502 v5,v5c,v5x  -0.70502   0.00000  -0.70502
:LMAX-WF:   10   Non-Spherical LMAX:   4

          ATOMIC SPHERE DEPENDENT PARAMETERS FOR ATOM  Pr        
:e__0001: OVERALL ENERGY PARAMETER IS    0.3677
          OVERALL BASIS SET ON ATOM IS LAPW
:E0_0001: E( 0)=    0.3677
             APW+lo
:E0_0001: E( 0)=   -2.1110   E(BOTTOM)=   -2.492   E(TOP)=   -1.730  4  5   168
             LOCAL ORBITAL
:E1_0001: E( 1)=    0.7677
             APW+lo
:E1_0001: E( 1)=   -0.7232   E(BOTTOM)=   -1.370   E(TOP)=   -0.076  3  4   180
             LOCAL ORBITAL
:E3_0001: E( 3)=    0.5578   E(BOTTOM)=    0.416   E(TOP)=    0.699  0  1   118
             APW+lo
:E2_0001: E( 2)=    0.3677   E(BOTTOM)=    0.205   E(TOP)= -200.000  2 -1    95
             APW+lo

       K=   0.00000   0.00000   0.00000            1
:RKM  : MATRIX SIZE   189LOs:  20  RKM= 8.20  WEIGHT= 1.00  PGR:    
       EIGENVALUES ARE:
:EIG00001:      -2.0715146   -0.7055395   -0.7055395   -0.7055395    0.3094498
:EIG00006:       0.5545711    0.5727132    0.5727132    0.5727132    0.5966143
:EIG00011:       0.5966143    0.5966143    0.6917641    0.6917641    0.6917641
:EIG00016:       0.8610509    0.8610509    1.2607787    1.4844713    1.4844713
:EIG00021:       1.4844713    1.5916662
       ********************************************************

:KPT   :      NUMBER OF K-POINTS:   165
:GAP (global)   :    0.0    Ry =     0.0   eV (metal)
         Bandranges (emin - emax) and occupancy:
:BAN00001:   1   -2.071515   -2.058760  2.00000000
:BAN00002:   2   -0.784830   -0.705540  2.00000000
:BAN00003:   3   -0.756974   -0.705540  2.00000000
:BAN00004:   4   -0.734876   -0.705540  2.00000000
:BAN00005:   5    0.309450    0.535595  2.00000000
:BAN00006:   6    0.489508    0.565842  2.00000000
:BAN00007:   7    0.552362    0.577565  1.00000000
:BAN00008:   8    0.568384    0.579745  0.00000000
:BAN00009:   9    0.572713    0.582917  0.00000000
:BAN00010:  10    0.578630    0.596614  0.00000000
:BAN00011:  11    0.581425    0.596614  0.00000000
:BAN00012:  12    0.584763    0.602114  0.00000000
        Energy to separate low and high energystates:    0.25945


:NOE  : NUMBER OF ELECTRONS          =   13.000

:FER  : F E R M I - ENERGY(TETRAH.M.)=   0.5674054965
:GMA  : POTENTIAL AND CHARGE CUT-OFF  12.00 Ry**.5

:POS001: ATOM    1 X,Y,Z = 0.00000 0.00000 0.50000  MULT= 1  ZZ= 59.000  Pr        

       LMMAX  5
       LM=   0 0  4 0  4 4  6 0  6 4

:CHA001: TOTAL VALENCE CHARGE INSIDE SPHERE   1 =   9.9865    (RMT=  2.5000 )
:PCS001: PARTIAL CHARGES SPHERE =  1 S,P,D,F,      D-EG,D-T2G 
:QTL001: 2.0305 5.3573 0.6436 1.9547 0.0000 0.0000 0.0000 0.2275 0.4161 0.0000 0.0000 0.0000
        Q-s-low E-s-low   Q-p-low E-p-low   Q-d-low E-d-low   Q-f-low E-f-low
:EPL001:  1.9254 -2.0614    5.2853 -0.7389    0.0011 -0.7545    0.0003 -0.7566
        Q-s-hi  E-s-hi    Q-p-hi  E-p-hi    Q-d-hi  E-d-hi    Q-f-hi  E-f-hi 
:EPH001:  0.1051  0.4601    0.0720  0.5020    0.6425  0.5144    1.9544  0.5527

:CHA  : TOTAL VALENCE CHARGE INSIDE UNIT CELL =      13.000000

:SUM  : SUM OF EIGENVALUES =          -5.952280443


        1.ATOM      Pr                   14 CORE STATES
:1S 001: 1S               -3067.015637424 Ry
:2S 001: 2S                -492.780346794 Ry
:2PP001: 2P*               -465.878119909 Ry
:2P 001: 2P                -430.481256806 Ry
:3S 001: 3S                -105.876325661 Ry
:3PP001: 3P*                -94.413852072 Ry
:3P 001: 3P                 -87.406304313 Ry
:3DD001: 3D*                -67.332969169 Ry
:3D 001: 3D                 -65.821499519 Ry
:4S 001: 4S                 -20.555405674 Ry
:4PP001: 4P*                -16.262055730 Ry
:4P 001: 4P                 -14.734499490 Ry
:4DD001: 4D*                 -7.667281155 Ry
:4D 001: 4D                  -7.397836565 Ry
:CINT001 Core Integral Atom   1   45.999518

       DENSITY AT NUCLEUS
        JATOM        VALENCE       SEMI-CORE          CORE           TOTAL
:RTO001:   1      651.106407        0.000000   656822.350355   657473.456762
     
       CHARGES OF NEW CHARGE DENSITY
:NTO   : INTERSTITIAL CHARGE =     3.013494
:NPC   : PW Pseudocharge     =     7.655088
:NTO001: CHARGE SPHERE  1    =    55.986023

:NEC01: NUCLEAR AND ELECTRONIC CHARGE     59.00000    58.99952
     
       CHARGES OF OLD CHARGE DENSITY
:OTO   : INTERSTITIAL CHARGE =     2.916100
:OPC   : PW Pseudocharge     =     7.710477
:OTO001: CHARGE SPHERE  1    =    56.083900

:NEC02: NUCLEAR AND ELECTRONIC CHARGE     59.00000    59.00000
     
       CONVERGENCE TEST
:DTO001: DIFFERENCE IN SPHERE  1 =  0.1679433

:DIS  :  CHARGE DISTANCE       ( 0.1679433 for atom    1 spin 1)      0.1679433
 PW Mixed is           55
 
******************************************************
* MULTISECANT MIXING VER9 RELEASE 10.4.0              *
* Slow Mode, cautious                                *
* Fixed density scale                                *
* Regularization       1.000E-04                     *
* Step Trust Radius    0.75000                       *
* Trust Upper Limit    2.000E+00                     *
* Max Number of Memory Steps   12                    *
******************************************************
 
:PWTMP   1.8127E+02  1.2500E+02  2.4672E+02
:PLANE:  PW TOTAL      3.0416 DISTAN   9.14E-02  3.00E+00 %
:CHARG:  CLM/ATOM    977.2516 DISTAN   5.65E-01  5.78E-02 %
 
Step History
        DMIX         DMIXT        Red     Pred      Trust     Lambda    MagRel    MagAbs     Beta
  1   3.5000E-02   3.5000E-02 -1.00E+00  1.00E+00 -1.00E+01  1.00E+00  3.50E-02  3.50E-02  1.00E+00
  2   2.5000E-02   2.5000E-02  7.67E-01  1.00E+00 -1.00E+01  1.00E+00  2.50E-02  2.05E-02  1.00E+00
  3   2.9454E-02   2.9454E-02  9.55E-01  1.00E+00 -1.00E+01  8.87E-02  2.95E-02  1.85E-02  1.00E+00
  4   2.5779E-02   2.5779E-02 -1.00E+00  9.17E-01  2.01E-01  1.00E+00  5.00E-02  3.00E-02  8.61E-01
:JACOBIANS    7.991E-01   5.166E-02
  
:NORMS:  1/Froebius, Min, Max, Used   0.7073E+00  0.3507E+00  0.9983E+00  0.8400E+00
:INFO :  Number of Memory Steps    3 Skipping    0
:INFO :  SLambda=    1.6562119471  Max    1.6562119471
:PREDicted Charge, CTotal, PW Trust    1.718E-02   1.718E-02   1.071E-01
:PREDicted DMix, Beta, BLim   1.1087E-01  4.5867E+00  2.6460E-01

Eigenvalues, unscaled except for SY+YY
   #     SY Real        SY Imag          SS             YY         SY+YY Real      SY+YY Imag
   1   1.455819E+00   0.000000E+00   1.432253E+00   2.029707E+00   4.174916E+00   0.000000E+00
   2  -4.417572E-16   0.000000E+00   6.845608E-02   9.702605E-01   2.597611E-05   0.000000E+00
   3   1.262435E-01   0.000000E+00   1.415327E-16   3.293078E-05   1.445289E+00   0.000000E+00
 
:INFO :  Singular value  4.175E+00 Weight  1.000E+00 Projection  1.206E-02
:INFO :  Singular value  1.445E+00 Weight  1.000E+00 Projection -3.764E-01
:INFO :  Singular value  2.598E-05 Weight  1.611E-02 Projection -1.898E-01
:RANK :  ACTIVE   2.02/3  =  67.20 % ; YY RANK   2.03/3  =  67.52 %
 
:BLIM :  VZERO Control Off
:TRUST:  Step 2.54E-01  Charge 7.50E-02 (e) CTO  2.50E-01 (e) PW  3.50E-01 (e)
:DTRUS:  Lambda    8.585E-02 Increment    7.276E-12 Iterations    98 DMIX    5.599E-02
:INFOA:  Angle SubSpace to MSR1      4.98
:DIRM :  MEMORY  3/12 SCALE   1.000 RED  0.95 PRED  0.92 NEXT  0.92 
:INFO :  Limited by Atoms F by Step T

:TRAVE:  Charge 4.90E-03 (e) CTO  4.90E-03 (e) PW  4.36E-02 (e)
:DIRP :  |MSR1|= 9.007E-02 |PRATT|= 9.137E-02 ANGLE=  31.2 DEGREES
:DIRQ :  |MSR1|= 1.143E-01 |PRATT|= 5.649E-01 ANGLE=  11.3 DEGREES
:DIRT :  |MSR1|= 1.455E-01 |PRATT|= 5.722E-01 ANGLE=  32.4 DEGREES
:MIX  :   MSE1   REGULARIZATION:  2.03E-04 GREED: 0.06445  LMStep 0.88  0.2542 Step           
     
       CHARGES OF MIXED CHARGE DENSITY
:CTO   : INTERSTITIAL CHARGE =     2.924014
:CPC   : PW Pseudocharge     =     7.572273
:CTO001: CHARGE SPHERE  1    =    56.075986

:NEC03: NUCLEAR AND ELECTRONIC CHARGE     59.00000    59.00000

PW CHANGE     H    K    L      Current       Change    Residue
:PTO001:      0    0    0  4.25438662E-02 -5.281E-04  1.772E-04
:PTO002:     -1   -1   -1 -1.32098768E-01  3.436E-03  2.353E-03
:PTO003:      0    0   -2  7.85089850E-02 -2.481E-03 -2.355E-03
:PTO004:      0   -2   -2  6.59067603E-02 -2.778E-03 -9.310E-04
:PTO005:     -1   -1   -3 -6.43419877E-02  4.876E-03  5.782E-03
:PTO006:     -2   -2   -2  1.65689981E-02 -1.478E-03 -1.925E-03
:PTO007:      0    0   -4  3.34722567E-03 -8.317E-04 -1.664E-03
:PTO008:     -1   -3   -3 -2.15515780E-03  1.755E-03  2.503E-03
:PTO009:      0   -2   -4 -4.01625460E-04 -1.613E-03 -2.712E-03
:PTO010:     -2   -2   -4 -5.42654119E-03 -9.482E-04 -2.324E-03
:PTO011:     -3   -3   -3  2.12126677E-03  2.243E-04  8.001E-04
:PTO012:     -1   -1   -5  6.31831722E-03  6.342E-04  2.207E-03

:ENE  : ********** TOTAL ENERGY IN Ry =       -18472.08004565

 Flat Integration
 New Mode for Coulomb Integral
 Consistent 3/8+Simpson combinations
 Extension of core to zero
 LDM version in phi
 Fifth-order quadrature in outwin


            ---------
:ITE005:  5. ITERATION
            ---------

:NATO :    1 INDEPENDENT AND    1 TOTAL ATOMS IN UNITCELL
       SUBSTANCE: blebleble                                                   

       LATTICE                      = F   
:POT  : POTENTIAL OPTION EX_LDA EC_LDA VX_LDA VC_LDA
:LAT  : LATTICE CONSTANTS=  9.95603  9.95603  9.95603    1.571    1.571    1.571
:VOL  : UNIT CELL VOLUME =     246.71680
       MODE OF CALCULATION IS       = RELA
       NON-SPINPOLARIZED CALCULATION
:IFFT  : FFT-parameters:   80   80   80 Factor: 2.00


   CONVERGENCE PARAMETER FOR PSEUDOCHARGE: NCON=  9
   MAXIMAL VALUE OF RMT(JATOM)*ABSK(NKK) : RK  =29.93539


:VKCOUL :  VK-COUL convergence: 0.731E-07
       ATOMNUMBER=  1 Pr         VCOUL-ZERO =  0.22168E+00
:FIT001: LUSE= 13 SIGMA OF V-XC FIT FOR ATOM  1  0.4134718E-05
:FIT001: LUSE= 13 SIGMA OF V-XC FIT FOR ATOM  1  0.4134718E-05
:DEN  : DENSITY INTEGRAL  =         -7069.89190898   (Ry)
       ELS_POTENTIAL_AT Z=0 and Z=0.5:  -2.45359  -2.45359
       ELS_POTENTIAL_AT Y=0 and Y=0.5:   0.00000   0.00000
:VZERO:v0,v0c,v0x  -3.42603  -2.45359  -0.97244 v5,v5c,v5x  -3.42603  -2.45359  -0.97244
:VZERY:v0,v0c,v0x  -0.70445   0.00000  -0.70445 v5,v5c,v5x  -0.70445   0.00000  -0.70445
:VZERX:v0,v0c,v0x  -0.70445   0.00000  -0.70445 v5,v5c,v5x  -0.70445   0.00000  -0.70445
:LMAX-WF:   10   Non-Spherical LMAX:   4

          ATOMIC SPHERE DEPENDENT PARAMETERS FOR ATOM  Pr        
:e__0001: OVERALL ENERGY PARAMETER IS    0.3675
          OVERALL BASIS SET ON ATOM IS LAPW
:E0_0001: E( 0)=    0.3675
             APW+lo
:E0_0001: E( 0)=   -2.1187   E(BOTTOM)=   -2.499   E(TOP)=   -1.738  4  5   164
             LOCAL ORBITAL
:E1_0001: E( 1)=    0.7675
             APW+lo
:E1_0001: E( 1)=   -0.7300   E(BOTTOM)=   -1.376   E(TOP)=   -0.084  3  4   172
             LOCAL ORBITAL
:E3_0001: E( 3)=    0.5467   E(BOTTOM)=    0.406   E(TOP)=    0.687  0  1   114
             APW+lo
:E2_0001: E( 2)=    0.3675   E(BOTTOM)=    0.200   E(TOP)= -200.000  2 -1    89
             APW+lo

       K=   0.00000   0.00000   0.00000            1
:RKM  : MATRIX SIZE   189LOs:  20  RKM= 8.20  WEIGHT= 1.00  PGR:    
       EIGENVALUES ARE:
:EIG00001:      -2.0790155   -0.7119151   -0.7119151   -0.7119151    0.3078599
:EIG00006:       0.5446858    0.5618570    0.5618570    0.5618570    0.5853066
:EIG00011:       0.5853066    0.5853066    0.6890242    0.6890242    0.6890242
:EIG00016:       0.8574530    0.8574530    1.2583753    1.4825588    1.4825588
:EIG00021:       1.4825588    1.5903700
       ********************************************************

:KPT   :      NUMBER OF K-POINTS:   165
:GAP (global)   :    0.0    Ry =     0.0   eV (metal)
         Bandranges (emin - emax) and occupancy:
:BAN00001:   1   -2.079015   -2.066369  2.00000000
:BAN00002:   2   -0.790569   -0.711915  2.00000000
:BAN00003:   3   -0.762932   -0.711915  2.00000000
:BAN00004:   4   -0.741014   -0.711915  2.00000000
:BAN00005:   5    0.307860    0.529969  2.00000000
:BAN00006:   6    0.487320    0.556573  2.00000000
:BAN00007:   7    0.544041    0.566660  1.00000000
:BAN00008:   8    0.558587    0.568953  0.00000000
:BAN00009:   9    0.561857    0.572655  0.00000000
:BAN00010:  10    0.567802    0.585307  0.00000000
:BAN00011:  11    0.570442    0.585307  0.00000000
:BAN00012:  12    0.573669    0.593961  0.00000000
        Energy to separate low and high energystates:    0.25786


:NOE  : NUMBER OF ELECTRONS          =   13.000

:FER  : F E R M I - ENERGY(TETRAH.M.)=   0.5575416429
:GMA  : POTENTIAL AND CHARGE CUT-OFF  12.00 Ry**.5

:POS001: ATOM    1 X,Y,Z = 0.00000 0.00000 0.50000  MULT= 1  ZZ= 59.000  Pr        

       LMMAX  5
       LM=   0 0  4 0  4 4  6 0  6 4

:CHA001: TOTAL VALENCE CHARGE INSIDE SPHERE   1 =  10.0922    (RMT=  2.5000 )
:PCS001: PARTIAL CHARGES SPHERE =  1 S,P,D,F,      D-EG,D-T2G 
:QTL001: 2.0294 5.3548 0.6026 2.1051 0.0000 0.0000 0.0000 0.2146 0.3880 0.0000 0.0000 0.0000
        Q-s-low E-s-low   Q-p-low E-p-low   Q-d-low E-d-low   Q-f-low E-f-low
:EPL001:  1.9258 -2.0689    5.2894 -0.7450    0.0011 -0.7606    0.0003 -0.7626
        Q-s-hi  E-s-hi    Q-p-hi  E-p-hi    Q-d-hi  E-d-hi    Q-f-hi  E-f-hi 
:EPH001:  0.1035  0.4566    0.0654  0.4939    0.6015  0.5080    2.1048  0.5441

:CHA  : TOTAL VALENCE CHARGE INSIDE UNIT CELL =      13.000000

:SUM  : SUM OF EIGENVALUES =          -6.032621231


        1.ATOM      Pr                   14 CORE STATES
:1S 001: 1S               -3067.039019260 Ry
:2S 001: 2S                -492.800718612 Ry
:2PP001: 2P*               -465.898886689 Ry
:2P 001: 2P                -430.501849984 Ry
:3S 001: 3S                -105.894266288 Ry
:3PP001: 3P*                -94.431933493 Ry
:3P 001: 3P                 -87.424230460 Ry
:3DD001: 3D*                -67.351181110 Ry
:3D 001: 3D                 -65.839663010 Ry
:4S 001: 4S                 -20.569824227 Ry
:4PP001: 4P*                -16.276338282 Ry
:4P 001: 4P                 -14.748547905 Ry
:4DD001: 4D*                 -7.680893885 Ry
:4D 001: 4D                  -7.411365975 Ry
:CINT001 Core Integral Atom   1   45.999521

       DENSITY AT NUCLEUS
        JATOM        VALENCE       SEMI-CORE          CORE           TOTAL
:RTO001:   1      651.292730        0.000000   656823.578416   657474.871147
     
       CHARGES OF NEW CHARGE DENSITY
:NTO   : INTERSTITIAL CHARGE =     2.907832
:NPC   : PW Pseudocharge     =     7.620438
:NTO001: CHARGE SPHERE  1    =    56.091688

:NEC01: NUCLEAR AND ELECTRONIC CHARGE     59.00000    58.99952
     
       CHARGES OF OLD CHARGE DENSITY
:OTO   : INTERSTITIAL CHARGE =     2.924014
:OPC   : PW Pseudocharge     =     7.572273
:OTO001: CHARGE SPHERE  1    =    56.075986

:NEC02: NUCLEAR AND ELECTRONIC CHARGE     59.00000    59.00000
     
       CONVERGENCE TEST
:DTO001: DIFFERENCE IN SPHERE  1 =  0.0795546

:DIS  :  CHARGE DISTANCE       ( 0.0795546 for atom    1 spin 1)      0.0795546
 PW Mixed is           55
 
******************************************************
* MULTISECANT MIXING VER9 RELEASE 10.4.0              *
* Standard Mode with controls                        *
* Fixed density scale                                *
* Regularization       1.000E-04                     *
* Trust Upper Limit    5.000E+00                     *
* Max Number of Memory Steps    8                    *
******************************************************
 
:PWTMP   1.8127E+02  1.2500E+02  2.4672E+02
:PLANE:  PW TOTAL      2.9652 DISTAN   3.91E-02  1.32E+00 %
:CHARG:  CLM/ATOM    977.2355 DISTAN   4.39E-01  4.49E-02 %
 
Step History
        DMIX         DMIXT        Red     Pred      Trust     Lambda    MagRel    MagAbs     Beta
  1   3.5000E-02   3.5000E-02 -1.00E+00  1.00E+00 -1.00E+01  1.00E+00  3.50E-02  3.50E-02  1.00E+00
  2   2.5000E-02   2.5000E-02  7.67E-01  1.00E+00 -1.00E+01  1.00E+00  2.50E-02  2.05E-02  1.00E+00
  3   2.9454E-02   2.9454E-02  9.55E-01  1.00E+00 -1.00E+01  8.87E-02  2.95E-02  1.85E-02  1.00E+00
  4   2.5779E-02   2.5779E-02  9.54E-01  9.17E-01  2.01E-01  1.66E+00  5.00E-02  3.00E-02  8.61E-01
  5   6.4448E-02   5.5988E-02 -1.00E+00  9.22E-01  2.54E-01  1.00E+00  2.54E-01  1.45E-01  1.00E+00
:JACOBIANS    9.028E-01   5.136E-01
  
:NORMS:  1/Froebius, Min, Max, Used   0.5707E+00  0.4910E+00  0.1000E+01  0.5954E+00
:INFO :  Number of Memory Steps    4 Skipping    0
:INFO :  SLambda=    0.7391709527  Max    0.7391709527
:PREDicted Charge, CTotal, PW Trust    8.605E-03   8.605E-03   3.267E-02
:PREDicted DMix, Beta, BLim   6.4132E-01  3.0151E+00  9.2127E-01

Eigenvalues, unscaled except for SY+YY
   #     SY Real        SY Imag          SS             YY         SY+YY Real      SY+YY Imag
   1   8.479376E-01   0.000000E+00   8.254582E-01   3.299106E+00   3.828328E+00   0.000000E+00
   2   5.474020E-01   0.000000E+00   4.773470E-01   6.991559E-01   1.200764E+00   0.000000E+00
   3   4.045444E-15   0.000000E+00   3.988499E-05   1.729216E-03   8.767949E-06   0.000000E+00
   4   5.326893E-04   0.000000E+00   1.728993E-17   8.912708E-06   2.687503E-03   0.000000E+00
 
:INFO :  Singular value  3.829E+00 Weight  1.000E+00 Projection -1.293E-01
:INFO :  Singular value  1.201E+00 Weight  1.000E+00 Projection -6.094E-02
:INFO :  Singular value  2.688E-03 Weight  9.852E-01 Projection -9.732E+00
:INFO :  Singular value  8.766E-06 Weight  7.054E-04 Projection -1.473E-02
:RANK :  ACTIVE   2.99/4  =  74.65 % ; YY RANK   2.97/4  =  74.14 %
 
:BLIM :  VZERO Control Off
:TRUST:  Step 5.74E-01  Charge 7.50E-02 (e) CTO  2.50E-01 (e) PW  3.50E-01 (e)
:DTRUS:  Lambda    2.585E+00 Increment    7.276E-12 Iterations   114 DMIX    1.375E-01
:INFOA:  Angle SubSpace to MSR1      0.85
:DIRM :  MEMORY  4/8  SCALE   1.000 RED  0.77 PRED  0.92 NEXT  0.41 
:INFO :  Limited by Atoms F by Step T

:TRAVE:  Charge 3.29E-03 (e) CTO  3.29E-03 (e) PW  2.98E-02 (e)
:DIRP :  |MSR1|= 2.423E-02 |PRATT|= 3.915E-02 ANGLE=   4.3 DEGREES
:DIRQ :  |MSR1|= 2.520E-01 |PRATT|= 4.390E-01 ANGLE=   3.4 DEGREES
:DIRT :  |MSR1|= 2.532E-01 |PRATT|= 4.407E-01 ANGLE=   3.5 DEGREES
:MIX  :   MSD1   REGULARIZATION:  3.30E-04 GREED: 0.16112  LMStep 0.62  0.5745 Step           
     
       CHARGES OF MIXED CHARGE DENSITY
:CTO   : INTERSTITIAL CHARGE =     2.922325
:CPC   : PW Pseudocharge     =     7.605614
:CTO001: CHARGE SPHERE  1    =    56.077675

:NEC03: NUCLEAR AND ELECTRONIC CHARGE     59.00000    59.00000

PW CHANGE     H    K    L      Current       Change    Residue
:PTO001:      0    0    0  4.26721603E-02  1.283E-04  1.367E-04
:PTO002:     -1   -1   -1 -1.32798936E-01 -7.002E-04 -1.124E-03
:PTO003:      0    0   -2  7.86950449E-02  1.861E-04  3.025E-04
:PTO004:      0   -2   -2  6.70554851E-02  1.149E-03  1.859E-03
:PTO005:     -1   -1   -3 -6.39697774E-02  3.722E-04  6.355E-04
:PTO006:     -2   -2   -2  1.63513834E-02 -2.176E-04 -3.883E-04
:PTO007:      0    0   -4  2.89613105E-03 -4.511E-04 -7.422E-04
:PTO008:     -1   -3   -3 -1.73409511E-03  4.211E-04  6.946E-04
:PTO009:      0   -2   -4 -1.00658809E-03 -6.050E-04 -9.803E-04
:PTO010:     -2   -2   -4 -6.21219973E-03 -7.857E-04 -1.304E-03
:PTO011:     -3   -3   -3  2.45495534E-03  3.337E-04  5.613E-04
:PTO012:     -1   -1   -5  7.19650560E-03  8.782E-04  1.449E-03

:ENE  : ********** TOTAL ENERGY IN Ry =       -18472.07949120

 Flat Integration
 New Mode for Coulomb Integral
 Consistent 3/8+Simpson combinations
 Extension of core to zero
 LDM version in phi
 Fifth-order quadrature in outwin


            ---------
:ITE006:  6. ITERATION
            ---------

:NATO :    1 INDEPENDENT AND    1 TOTAL ATOMS IN UNITCELL
       SUBSTANCE: blebleble                                                   

       LATTICE                      = F   
:POT  : POTENTIAL OPTION EX_LDA EC_LDA VX_LDA VC_LDA
:LAT  : LATTICE CONSTANTS=  9.95603  9.95603  9.95603    1.571    1.571    1.571
:VOL  : UNIT CELL VOLUME =     246.71680
       MODE OF CALCULATION IS       = RELA
       NON-SPINPOLARIZED CALCULATION
:IFFT  : FFT-parameters:   80   80   80 Factor: 2.00


   CONVERGENCE PARAMETER FOR PSEUDOCHARGE: NCON=  9
   MAXIMAL VALUE OF RMT(JATOM)*ABSK(NKK) : RK  =29.93539


:VKCOUL :  VK-COUL convergence: 0.188E-06
       ATOMNUMBER=  1 Pr         VCOUL-ZERO =  0.22159E+00
:FIT001: LUSE= 13 SIGMA OF V-XC FIT FOR ATOM  1  0.2458057E-04
:FIT001: LUSE= 13 SIGMA OF V-XC FIT FOR ATOM  1  0.2458057E-04
:DEN  : DENSITY INTEGRAL  =         -7070.21790236   (Ry)
       ELS_POTENTIAL_AT Z=0 and Z=0.5:  -2.46436  -2.46436
       ELS_POTENTIAL_AT Y=0 and Y=0.5:   0.00000   0.00000
:VZERO:v0,v0c,v0x  -3.43291  -2.46436  -0.96854 v5,v5c,v5x  -3.43291  -2.46436  -0.96854
:VZERY:v0,v0c,v0x  -0.70474   0.00000  -0.70474 v5,v5c,v5x  -0.70474   0.00000  -0.70474
:VZERX:v0,v0c,v0x  -0.70474   0.00000  -0.70474 v5,v5c,v5x  -0.70474   0.00000  -0.70474
:LMAX-WF:   10   Non-Spherical LMAX:   4

          ATOMIC SPHERE DEPENDENT PARAMETERS FOR ATOM  Pr        
:e__0001: OVERALL ENERGY PARAMETER IS    0.3609
          OVERALL BASIS SET ON ATOM IS LAPW
:E0_0001: E( 0)=    0.3609
             APW+lo
:E0_0001: E( 0)=   -2.1176   E(BOTTOM)=   -2.498   E(TOP)=   -1.737  4  5   168
             LOCAL ORBITAL
:E1_0001: E( 1)=    0.7609
             APW+lo
:E1_0001: E( 1)=   -0.7292   E(BOTTOM)=   -1.375   E(TOP)=   -0.083  3  4   168
             LOCAL ORBITAL
:E3_0001: E( 3)=    0.5509   E(BOTTOM)=    0.410   E(TOP)=    0.692  0  1   120
             APW+lo
:E2_0001: E( 2)=    0.3609   E(BOTTOM)=    0.201   E(TOP)= -200.000  2 -1    96
             APW+lo

       K=   0.00000   0.00000   0.00000            1
:RKM  : MATRIX SIZE   189LOs:  20  RKM= 8.20  WEIGHT= 1.00  PGR:    
       EIGENVALUES ARE:
:EIG00001:      -2.0779208   -0.7111390   -0.7111390   -0.7111390    0.3086370
:EIG00006:       0.5490977    0.5658673    0.5658673    0.5658673    0.5896265
:EIG00011:       0.5896265    0.5896265    0.6900266    0.6900266    0.6900266
:EIG00016:       0.8580588    0.8580588    1.2595084    1.4834495    1.4834495
:EIG00021:       1.4834495    1.5895022
       ********************************************************

:KPT   :      NUMBER OF K-POINTS:   165
:GAP (global)   :    0.0    Ry =     0.0   eV (metal)
         Bandranges (emin - emax) and occupancy:
:BAN00001:   1   -2.077921   -2.065266  2.00000000
:BAN00002:   2   -0.789798   -0.711139  2.00000000
:BAN00003:   3   -0.762153   -0.711139  2.00000000
:BAN00004:   4   -0.740234   -0.711139  2.00000000
:BAN00005:   5    0.308637    0.531803  2.00000000
:BAN00006:   6    0.488154    0.559867  2.00000000
:BAN00007:   7    0.547062    0.570840  1.00000000
:BAN00008:   8    0.562289    0.573072  0.00000000
:BAN00009:   9    0.565867    0.577107  0.00000000
:BAN00010:  10    0.571988    0.589626  0.00000000
:BAN00011:  11    0.574556    0.589626  0.00000000
:BAN00012:  12    0.577823    0.596751  0.00000000
        Energy to separate low and high energystates:    0.25864


:NOE  : NUMBER OF ELECTRONS          =   13.000

:FER  : F E R M I - ENERGY(TETRAH.M.)=   0.5613004539
:GMA  : POTENTIAL AND CHARGE CUT-OFF  12.00 Ry**.5

:POS001: ATOM    1 X,Y,Z = 0.00000 0.00000 0.50000  MULT= 1  ZZ= 59.000  Pr        

       LMMAX  5
       LM=   0 0  4 0  4 4  6 0  6 4

:CHA001: TOTAL VALENCE CHARGE INSIDE SPHERE   1 =  10.0497    (RMT=  2.5000 )
:PCS001: PARTIAL CHARGES SPHERE =  1 S,P,D,F,      D-EG,D-T2G 
:QTL001: 2.0298 5.3571 0.6214 2.0412 0.0000 0.0000 0.0000 0.2207 0.4006 0.0000 0.0000 0.0000
        Q-s-low E-s-low   Q-p-low E-p-low   Q-d-low E-d-low   Q-f-low E-f-low
:EPL001:  1.9258 -2.0678    5.2892 -0.7442    0.0011 -0.7598    0.0003 -0.7618
        Q-s-hi  E-s-hi    Q-p-hi  E-p-hi    Q-d-hi  E-d-hi    Q-f-hi  E-f-hi 
:EPH001:  0.1040  0.4580    0.0679  0.4970    0.6202  0.5105    2.0409  0.5474

:CHA  : TOTAL VALENCE CHARGE INSIDE UNIT CELL =      13.000000

:SUM  : SUM OF EIGENVALUES =          -6.014863027


        1.ATOM      Pr                   14 CORE STATES
:1S 001: 1S               -3067.040077849 Ry
:2S 001: 2S                -492.795666757 Ry
:2PP001: 2P*               -465.894613329 Ry
:2P 001: 2P                -430.497231489 Ry
:3S 001: 3S                -105.885526019 Ry
:3PP001: 3P*                -94.423377023 Ry
:3P 001: 3P                 -87.415530227 Ry
:3DD001: 3D*                -67.342726288 Ry
:3D 001: 3D                 -65.831154609 Ry
:4S 001: 4S                 -20.562378361 Ry
:4PP001: 4P*                -16.269141739 Ry
:4P 001: 4P                 -14.741692358 Ry
:4DD001: 4D*                 -7.674603962 Ry
:4D 001: 4D                  -7.405186497 Ry
:CINT001 Core Integral Atom   1   45.999519

       DENSITY AT NUCLEUS
        JATOM        VALENCE       SEMI-CORE          CORE           TOTAL
:RTO001:   1      651.219639        0.000000   656824.300931   657475.520570
     
       CHARGES OF NEW CHARGE DENSITY
:NTO   : INTERSTITIAL CHARGE =     2.950320
:NPC   : PW Pseudocharge     =     7.639176
:NTO001: CHARGE SPHERE  1    =    56.049198

:NEC01: NUCLEAR AND ELECTRONIC CHARGE     59.00000    58.99952
     
       CHARGES OF OLD CHARGE DENSITY
:OTO   : INTERSTITIAL CHARGE =     2.922325
:OPC   : PW Pseudocharge     =     7.605614
:OTO001: CHARGE SPHERE  1    =    56.077675

:NEC02: NUCLEAR AND ELECTRONIC CHARGE     59.00000    59.00000
     
       CONVERGENCE TEST
:DTO001: DIFFERENCE IN SPHERE  1 =  0.0547108

:DIS  :  CHARGE DISTANCE       ( 0.0547108 for atom    1 spin 1)      0.0547108
 PW Mixed is           55
 
******************************************************
* MULTISECANT MIXING VER9 RELEASE 10.4.0              *
* Standard Mode with controls                        *
* Fixed density scale                                *
* Regularization       1.000E-04                     *
* Trust Upper Limit    5.000E+00                     *
* Max Number of Memory Steps    8                    *
******************************************************
 
:PWTMP   1.8127E+02  1.2500E+02  2.4672E+02
:PLANE:  PW TOTAL      2.9784 DISTAN   1.94E-02  6.52E-01 %
:CHARG:  CLM/ATOM    977.2044 DISTAN   1.86E-01  1.90E-02 %
 
Step History
        DMIX         DMIXT        Red     Pred      Trust     Lambda    MagRel    MagAbs     Beta
  1   3.5000E-02   3.5000E-02 -1.00E+00  1.00E+00 -1.00E+01  1.00E+00  3.50E-02  3.50E-02  1.00E+00
  2   2.5000E-02   2.5000E-02  7.67E-01  1.00E+00 -1.00E+01  1.00E+00  2.50E-02  2.05E-02  1.00E+00
  3   2.9454E-02   2.9454E-02  9.55E-01  1.00E+00 -1.00E+01  8.87E-02  2.95E-02  1.85E-02  1.00E+00
  4   2.5779E-02   2.5779E-02  9.54E-01  9.17E-01  2.01E-01  1.66E+00  5.00E-02  3.00E-02  8.61E-01
  5   6.4448E-02   5.5988E-02  7.70E-01  9.22E-01  2.54E-01  7.39E-01  2.54E-01  1.45E-01  1.00E+00
  6   1.6112E-01   1.3748E-01 -1.00E+00  4.07E-01  5.74E-01  1.00E+00  5.74E-01  2.53E-01  1.00E+00
:JACOBIANS    9.552E-01   7.736E-01
  
:NORMS:  1/Froebius, Min, Max, Used   0.9006E+00  0.4280E+00  0.1000E+01  0.9527E+00
:INFO :  Number of Memory Steps    5 Skipping    0
:INFO :  SLambda=    1.0838170764  Max    1.0838170764
:PREDicted Charge, CTotal, PW Trust    1.410E-03   1.410E-03   3.184E-02
:PREDicted DMix, Beta, BLim   2.3397E-02  1.5624E+00  9.7349E-01

Eigenvalues, unscaled except for SY+YY
   #     SY Real        SY Imag          SS             YY         SY+YY Real      SY+YY Imag
   1   3.617035E+00   0.000000E+00   3.608940E+00   3.976395E+00   7.874614E+00   0.000000E+00
   2   4.581131E-01   0.000000E+00   4.442884E-01   7.514168E-01   1.169934E+00   0.000000E+00
   3   2.997633E-02   0.000000E+00   2.090767E-03   2.721753E-01   4.046430E-01   0.000000E+00
   4   3.161531E-15   0.000000E+00   7.318734E-07   1.108417E-05   1.352574E-05   0.000000E+00
   5   2.166013E-06   0.000000E+00   2.366652E-17   2.134572E-06   1.987034E-06   0.000000E+00
 
:INFO :  Singular value  7.876E+00 Weight  1.000E+00 Projection -9.239E-02
:INFO :  Singular value  1.170E+00 Weight  1.000E+00 Projection  4.085E-03
:INFO :  Singular value  4.046E-01 Weight  1.000E+00 Projection -9.968E-03
:INFO :  Singular value  1.366E-05 Weight  1.178E-03 Projection  9.079E-03
:INFO :  Singular value  1.968E-06 Weight  2.449E-05 Projection -4.689E-04
:RANK :  ACTIVE   3.00/5  =  60.02 % ; YY RANK   3.00/5  =  60.02 %
 
:BLIM :  VZERO Control Off
:TRUST:  Step 7.66E-01  Charge 7.50E-02 (e) CTO  2.50E-01 (e) PW  3.50E-01 (e)
:DTRUS:  Lambda    7.646E-02 Increment    7.276E-12 Iterations    95 DMIX    6.222E-02
:INFOA:  Angle SubSpace to MSR1      0.35
:DIRM :  MEMORY  5/8  SCALE   1.000 RED  0.42 PRED  0.41 NEXT  0.27 
:INFO :  Limited by Atoms F by Step T

:TRAVE:  Charge 2.87E-03 (e) CTO  2.87E-03 (e) PW  2.09E-02 (e)
:DIRP :  |MSR1|= 1.429E-02 |PRATT|= 1.941E-02 ANGLE=  16.6 DEGREES
:DIRQ :  |MSR1|= 1.425E-01 |PRATT|= 1.859E-01 ANGLE=  18.2 DEGREES
:DIRT :  |MSR1|= 1.432E-01 |PRATT|= 1.870E-01 ANGLE=  18.2 DEGREES
:MIX  :   MSE1   REGULARIZATION:  3.98E-04 GREED: 0.06445  LMStep 0.81  0.7660 Step           
     
       CHARGES OF MIXED CHARGE DENSITY
:CTO   : INTERSTITIAL CHARGE =     2.924770
:CPC   : PW Pseudocharge     =     7.626963
:CTO001: CHARGE SPHERE  1    =    56.075230

:NEC03: NUCLEAR AND ELECTRONIC CHARGE     59.00000    59.00000

PW CHANGE     H    K    L      Current       Change    Residue
:PTO001:      0    0    0  4.27686042E-02  9.644E-05  2.565E-04
:PTO002:     -1   -1   -1 -1.33224974E-01 -4.260E-04 -4.840E-04
:PTO003:      0    0   -2  7.88154952E-02  1.205E-04  1.363E-04
:PTO004:      0   -2   -2  6.77335331E-02  6.780E-04  7.933E-04
:PTO005:     -1   -1   -3 -6.37830693E-02  1.867E-04  2.982E-04
:PTO006:     -2   -2   -2  1.62348875E-02 -1.165E-04 -2.014E-04
:PTO007:      0    0   -4  2.64178770E-03 -2.543E-04 -3.100E-04
:PTO008:     -1   -3   -3 -1.50315750E-03  2.309E-04  3.074E-04
:PTO009:      0   -2   -4 -1.34436469E-03 -3.378E-04 -4.034E-04
:PTO010:     -2   -2   -4 -6.65740672E-03 -4.452E-04 -5.575E-04
:PTO011:     -3   -3   -3  2.64490582E-03  1.900E-04  2.425E-04
:PTO012:     -1   -1   -5  7.69666413E-03  5.002E-04  5.958E-04

:ENE  : ********** TOTAL ENERGY IN Ry =       -18472.07951147

 Flat Integration
 New Mode for Coulomb Integral
 Consistent 3/8+Simpson combinations
 Extension of core to zero
 LDM version in phi
 Fifth-order quadrature in outwin


            ---------
:ITE007:  7. ITERATION
            ---------

:NATO :    1 INDEPENDENT AND    1 TOTAL ATOMS IN UNITCELL
       SUBSTANCE: blebleble                                                   

       LATTICE                      = F   
:POT  : POTENTIAL OPTION EX_LDA EC_LDA VX_LDA VC_LDA
:LAT  : LATTICE CONSTANTS=  9.95603  9.95603  9.95603    1.571    1.571    1.571
:VOL  : UNIT CELL VOLUME =     246.71680
       MODE OF CALCULATION IS       = RELA
       NON-SPINPOLARIZED CALCULATION
:IFFT  : FFT-parameters:   80   80   80 Factor: 2.00


   CONVERGENCE PARAMETER FOR PSEUDOCHARGE: NCON=  9
   MAXIMAL VALUE OF RMT(JATOM)*ABSK(NKK) : RK  =29.93539


:VKCOUL :  VK-COUL convergence: 0.254E-06
       ATOMNUMBER=  1 Pr         VCOUL-ZERO =  0.22157E+00
:FIT001: LUSE= 13 SIGMA OF V-XC FIT FOR ATOM  1  0.4452868E-04
:FIT001: LUSE= 13 SIGMA OF V-XC FIT FOR ATOM  1  0.4452868E-04
:DEN  : DENSITY INTEGRAL  =         -7070.01136719   (Ry)
       ELS_POTENTIAL_AT Z=0 and Z=0.5:  -2.47229  -2.47229
       ELS_POTENTIAL_AT Y=0 and Y=0.5:   0.00000   0.00000
:VZERO:v0,v0c,v0x  -3.43873  -2.47229  -0.96644 v5,v5c,v5x  -3.43873  -2.47229  -0.96644
:VZERY:v0,v0c,v0x  -0.70508   0.00000  -0.70508 v5,v5c,v5x  -0.70508   0.00000  -0.70508
:VZERX:v0,v0c,v0x  -0.70508   0.00000  -0.70508 v5,v5c,v5x  -0.70508   0.00000  -0.70508
:LMAX-WF:   10   Non-Spherical LMAX:   4

          ATOMIC SPHERE DEPENDENT PARAMETERS FOR ATOM  Pr        
:e__0001: OVERALL ENERGY PARAMETER IS    0.3612
          OVERALL BASIS SET ON ATOM IS LAPW
:E0_0001: E( 0)=    0.3612
             APW+lo
:E0_0001: E( 0)=   -2.1196   E(BOTTOM)=   -2.500   E(TOP)=   -1.739  4  5   164
             LOCAL ORBITAL
:E1_0001: E( 1)=    0.7612
             APW+lo
:E1_0001: E( 1)=   -0.7310   E(BOTTOM)=   -1.377   E(TOP)=   -0.085  3  4   167
             LOCAL ORBITAL
:E3_0001: E( 3)=    0.5486   E(BOTTOM)=    0.408   E(TOP)=    0.690  0  1   115
             APW+lo
:E2_0001: E( 2)=    0.3612   E(BOTTOM)=    0.200   E(TOP)= -200.000  2 -1    92
             APW+lo

       K=   0.00000   0.00000   0.00000            1
:RKM  : MATRIX SIZE   189LOs:  20  RKM= 8.20  WEIGHT= 1.00  PGR:    
       EIGENVALUES ARE:
:EIG00001:      -2.0798623   -0.7127312   -0.7127312   -0.7127312    0.3090283
:EIG00006:       0.5472735    0.5635514    0.5635514    0.5635514    0.5872038
:EIG00011:       0.5872038    0.5872038    0.6900166    0.6900166    0.6900166
:EIG00016:       0.8575534    0.8575534    1.2596983    1.4837312    1.4837312
:EIG00021:       1.4837312    1.5894157
       ********************************************************

:KPT   :      NUMBER OF K-POINTS:   165
:GAP (global)   :    0.0    Ry =     0.0   eV (metal)
         Bandranges (emin - emax) and occupancy:
:BAN00001:   1   -2.079862   -2.067249  2.00000000
:BAN00002:   2   -0.791130   -0.712731  2.00000000
:BAN00003:   3   -0.763573   -0.712731  2.00000000
:BAN00004:   4   -0.741728   -0.712731  2.00000000
:BAN00005:   5    0.309028    0.531202  2.00000000
:BAN00006:   6    0.488320    0.558215  2.00000000
:BAN00007:   7    0.545416    0.568536  1.00000000
:BAN00008:   8    0.560277    0.570798  0.00000000
:BAN00009:   9    0.563551    0.575214  0.00000000
:BAN00010:  10    0.569675    0.587204  0.00000000
:BAN00011:  11    0.572289    0.587204  0.00000000
:BAN00012:  12    0.575453    0.595199  0.00000000
        Energy to separate low and high energystates:    0.25903


:NOE  : NUMBER OF ELECTRONS          =   13.000

:FER  : F E R M I - ENERGY(TETRAH.M.)=   0.5592859090
:GMA  : POTENTIAL AND CHARGE CUT-OFF  12.00 Ry**.5

:POS001: ATOM    1 X,Y,Z = 0.00000 0.00000 0.50000  MULT= 1  ZZ= 59.000  Pr        

       LMMAX  5
       LM=   0 0  4 0  4 4  6 0  6 4

:CHA001: TOTAL VALENCE CHARGE INSIDE SPHERE   1 =  10.0793    (RMT=  2.5000 )
:PCS001: PARTIAL CHARGES SPHERE =  1 S,P,D,F,      D-EG,D-T2G 
:QTL001: 2.0294 5.3569 0.6106 2.0822 0.0000 0.0000 0.0000 0.2175 0.3930 0.0000 0.0000 0.0000
        Q-s-low E-s-low   Q-p-low E-p-low   Q-d-low E-d-low   Q-f-low E-f-low
:EPL001:  1.9259 -2.0698    5.2908 -0.7457    0.0011 -0.7613    0.0003 -0.7633
        Q-s-hi  E-s-hi    Q-p-hi  E-p-hi    Q-d-hi  E-d-hi    Q-f-hi  E-f-hi 
:EPH001:  0.1035  0.4577    0.0661  0.4955    0.6094  0.5095    2.0819  0.5457

:CHA  : TOTAL VALENCE CHARGE INSIDE UNIT CELL =      13.000000

:SUM  : SUM OF EIGENVALUES =          -6.031995949


        1.ATOM      Pr                   14 CORE STATES
:1S 001: 1S               -3067.049685084 Ry
:2S 001: 2S                -492.801815572 Ry
:2PP001: 2P*               -465.901204076 Ry
:2P 001: 2P                -430.503626201 Ry
:3S 001: 3S                -105.889326320 Ry
:3PP001: 3P*                -94.427303556 Ry
:3P 001: 3P                 -87.419337034 Ry
:3DD001: 3D*                -67.346745769 Ry
:3D 001: 3D                 -65.835133941 Ry
:4S 001: 4S                 -20.565028919 Ry
:4PP001: 4P*                -16.271819429 Ry
:4P 001: 4P                 -14.744385189 Ry
:4DD001: 4D*                 -7.677305356 Ry
:4D 001: 4D                  -7.407889977 Ry
:CINT001 Core Integral Atom   1   45.999519

       DENSITY AT NUCLEUS
        JATOM        VALENCE       SEMI-CORE          CORE           TOTAL
:RTO001:   1      651.258440        0.000000   656825.099416   657476.357856
     
       CHARGES OF NEW CHARGE DENSITY
:NTO   : INTERSTITIAL CHARGE =     2.920715
:NPC   : PW Pseudocharge     =     7.631151
:NTO001: CHARGE SPHERE  1    =    56.078803

:NEC01: NUCLEAR AND ELECTRONIC CHARGE     59.00000    58.99952
     
       CHARGES OF OLD CHARGE DENSITY
:OTO   : INTERSTITIAL CHARGE =     2.924770
:OPC   : PW Pseudocharge     =     7.626963
:OTO001: CHARGE SPHERE  1    =    56.075230

:NEC02: NUCLEAR AND ELECTRONIC CHARGE     59.00000    59.00000
     
       CONVERGENCE TEST
:DTO001: DIFFERENCE IN SPHERE  1 =  0.0064673

:DIS  :  CHARGE DISTANCE       ( 0.0064673 for atom    1 spin 1)      0.0064673
 PW Mixed is           55
 
******************************************************
* MULTISECANT MIXING VER9 RELEASE 10.4.0              *
* Standard Mode with controls                        *
* Fixed density scale                                *
* Regularization       1.000E-04                     *
* Trust Upper Limit    5.000E+00                     *
* Max Number of Memory Steps    8                    *
******************************************************
 
:PWTMP   1.8127E+02  1.2500E+02  2.4672E+02
:PLANE:  PW TOTAL      2.9869 DISTAN   3.28E-03  1.10E-01 %
:CHARG:  CLM/ATOM    977.1864 DISTAN   4.73E-02  4.84E-03 %
 
Step History
        DMIX         DMIXT        Red     Pred      Trust     Lambda    MagRel    MagAbs     Beta
  1   3.5000E-02   3.5000E-02 -1.00E+00  1.00E+00 -1.00E+01  1.00E+00  3.50E-02  3.50E-02  1.00E+00
  2   2.5000E-02   2.5000E-02  7.67E-01  1.00E+00 -1.00E+01  1.00E+00  2.50E-02  2.05E-02  1.00E+00
  3   2.9454E-02   2.9454E-02  9.55E-01  1.00E+00 -1.00E+01  8.87E-02  2.95E-02  1.85E-02  1.00E+00
  4   2.5779E-02   2.5779E-02  9.54E-01  9.17E-01  2.01E-01  1.66E+00  5.00E-02  3.00E-02  8.61E-01
  5   6.4448E-02   5.5988E-02  7.70E-01  9.22E-01  2.54E-01  7.39E-01  2.54E-01  1.45E-01  1.00E+00
  6   1.6112E-01   1.3748E-01  4.24E-01  4.07E-01  5.74E-01  1.08E+00  5.74E-01  2.53E-01  1.00E+00
  7   6.4448E-02   6.2223E-02 -1.00E+00  2.72E-01  7.66E-01  1.00E+00  7.66E-01  1.43E-01  1.00E+00
:JACOBIANS    9.815E-01   9.705E-01
  
:NORMS:  1/Froebius, Min, Max, Used   0.9229E+00  0.4599E+00  0.1000E+01  0.9446E+00
:INFO :  Number of Memory Steps    6 Skipping    0
:INFO :  SLambda=    0.9859539557  Max    0.9859539557
:PREDicted Charge, CTotal, PW Trust    1.322E-03   1.322E-03   1.456E-02
:PREDicted DMix, Beta, BLim   1.9718E-01  1.1983E+00  9.2070E-01

Eigenvalues, unscaled except for SY+YY
   #     SY Real        SY Imag          SS             YY         SY+YY Real      SY+YY Imag
   1   4.832455E+00   0.000000E+00   4.815008E+00   5.396316E+00   1.014868E+01   0.000000E+00
   2   3.050615E-01   0.000000E+00   2.946433E-01   4.635389E-01   7.372172E-01   0.000000E+00
   3   1.445333E-02   0.000000E+00   1.035778E-03   1.398211E-01   1.933825E-01   0.000000E+00
   4   1.729380E-04   0.000000E+00   9.794935E-05   3.183877E-04   4.863253E-04   0.000000E+00
   5   5.327918E-16   0.000000E+00   1.454921E-07   5.536893E-06   1.290347E-07   0.000000E+00
   6   8.522085E-07   0.000000E+00  -1.136129E-16   1.240706E-07   6.314462E-06   0.000000E+00
 
:INFO :  Singular value  1.015E+01 Weight  1.000E+00 Projection  1.406E-02
:INFO :  Singular value  7.372E-01 Weight  1.000E+00 Projection  4.443E-03
:INFO :  Singular value  1.934E-01 Weight  1.000E+00 Projection -1.863E-02
:INFO :  Singular value  4.866E-04 Weight  4.485E-01 Projection -8.577E-01
:INFO :  Singular value  6.362E-06 Weight  1.390E-04 Projection  8.103E-04
:INFO :  Singular value  1.280E-07 Weight  5.627E-08 Projection  7.623E-08
:RANK :  ACTIVE   3.45/6  =  57.48 % ; YY RANK   3.26/6  =  54.31 %
 
:BLIM :  VZERO Control Off
:TRUST:  Step 1.02E+00  Charge 7.50E-02 (e) CTO  2.50E-01 (e) PW  3.50E-01 (e)
:DIRM :  MEMORY  6/8  SCALE   1.000 RED  0.25 PRED  0.27 NEXT  0.47 
:TRAVE:  Charge 2.25E-03 (e) CTO  2.25E-03 (e) PW  1.16E-02 (e)
:DIRP :  |MSR1|= 3.378E-03 |PRATT|= 3.276E-03 ANGLE=  19.1 DEGREES
:DIRQ :  |MSR1|= 3.056E-02 |PRATT|= 4.726E-02 ANGLE=  23.1 DEGREES
:DIRT :  |MSR1|= 3.075E-02 |PRATT|= 4.738E-02 ANGLE=  23.2 DEGREES
:MIX  :   MSD1   REGULARIZATION:  5.40E-04 GREED: 0.14060  Newton 1.00  0.6490                
     
       CHARGES OF MIXED CHARGE DENSITY
:CTO   : INTERSTITIAL CHARGE =     2.923146
:CPC   : PW Pseudocharge     =     7.632946
:CTO001: CHARGE SPHERE  1    =    56.076854

:NEC03: NUCLEAR AND ELECTRONIC CHARGE     59.00000    59.00000

PW CHANGE     H    K    L      Current       Change    Residue
:PTO001:      0    0    0  4.27862725E-02  1.767E-05  7.589E-06
:PTO002:     -1   -1   -1 -1.33349731E-01 -1.248E-04 -9.485E-05
:PTO003:      0    0   -2  7.88964813E-02  8.099E-05  1.009E-04
:PTO004:      0   -2   -2  6.79039644E-02  1.704E-04  1.495E-04
:PTO005:     -1   -1   -3 -6.38124368E-02 -2.937E-05  6.299E-06
:PTO006:     -2   -2   -2  1.62116004E-02 -2.329E-05 -7.009E-05
:PTO007:      0    0   -4  2.61039237E-03 -3.140E-05 -2.406E-05
:PTO008:     -1   -3   -3 -1.46922602E-03  3.393E-05  6.495E-05
:PTO009:      0   -2   -4 -1.37856168E-03 -3.420E-05 -2.481E-05
:PTO010:     -2   -2   -4 -6.73730038E-03 -7.989E-05 -9.494E-05
:PTO011:     -3   -3   -3  2.68453742E-03  3.963E-05  5.097E-05
:PTO012:     -1   -1   -5  7.77110261E-03  7.444E-05  5.198E-05

:ENE  : ********** TOTAL ENERGY IN Ry =       -18472.07947076

 Flat Integration
 New Mode for Coulomb Integral
 Consistent 3/8+Simpson combinations
 Extension of core to zero
 LDM version in phi
 Fifth-order quadrature in outwin


            ---------
:ITE008:  8. ITERATION
            ---------

:NATO :    1 INDEPENDENT AND    1 TOTAL ATOMS IN UNITCELL
       SUBSTANCE: blebleble                                                   

       LATTICE                      = F   
:POT  : POTENTIAL OPTION EX_LDA EC_LDA VX_LDA VC_LDA
:LAT  : LATTICE CONSTANTS=  9.95603  9.95603  9.95603    1.571    1.571    1.571
:VOL  : UNIT CELL VOLUME =     246.71680
       MODE OF CALCULATION IS       = RELA
       NON-SPINPOLARIZED CALCULATION
:IFFT  : FFT-parameters:   80   80   80 Factor: 2.00


   CONVERGENCE PARAMETER FOR PSEUDOCHARGE: NCON=  9
   MAXIMAL VALUE OF RMT(JATOM)*ABSK(NKK) : RK  =29.93539


:VKCOUL :  VK-COUL convergence: 0.267E-06
       ATOMNUMBER=  1 Pr         VCOUL-ZERO =  0.22158E+00
:FIT001: LUSE= 13 SIGMA OF V-XC FIT FOR ATOM  1  0.4865481E-04
:FIT001: LUSE= 13 SIGMA OF V-XC FIT FOR ATOM  1  0.4865481E-04
:DEN  : DENSITY INTEGRAL  =         -7070.04664123   (Ry)
       ELS_POTENTIAL_AT Z=0 and Z=0.5:  -2.47261  -2.47261
       ELS_POTENTIAL_AT Y=0 and Y=0.5:   0.00000   0.00000
:VZERO:v0,v0c,v0x  -3.43893  -2.47261  -0.96632 v5,v5c,v5x  -3.43893  -2.47261  -0.96632
:VZERY:v0,v0c,v0x  -0.70506   0.00000  -0.70506 v5,v5c,v5x  -0.70506   0.00000  -0.70506
:VZERX:v0,v0c,v0x  -0.70506   0.00000  -0.70506 v5,v5c,v5x  -0.70506   0.00000  -0.70506
:LMAX-WF:   10   Non-Spherical LMAX:   4

          ATOMIC SPHERE DEPENDENT PARAMETERS FOR ATOM  Pr        
:e__0001: OVERALL ENERGY PARAMETER IS    0.3599
          OVERALL BASIS SET ON ATOM IS LAPW
:E0_0001: E( 0)=    0.3599
             APW+lo
:E0_0001: E( 0)=   -2.1191   E(BOTTOM)=   -2.499   E(TOP)=   -1.739  4  5   164
             LOCAL ORBITAL
:E1_0001: E( 1)=    0.7599
             APW+lo
:E1_0001: E( 1)=   -0.7305   E(BOTTOM)=   -1.376   E(TOP)=   -0.085  3  4   164
             LOCAL ORBITAL
:E3_0001: E( 3)=    0.5493   E(BOTTOM)=    0.408   E(TOP)=    0.690  0  1   120
             APW+lo
:E2_0001: E( 2)=    0.3599   E(BOTTOM)=    0.200   E(TOP)= -200.000  2 -1    84
             APW+lo

       K=   0.00000   0.00000   0.00000            1
:RKM  : MATRIX SIZE   189LOs:  20  RKM= 8.20  WEIGHT= 1.00  PGR:    
       EIGENVALUES ARE:
:EIG00001:      -2.0793045   -0.7122645   -0.7122645   -0.7122645    0.3091096
:EIG00006:       0.5477892    0.5643764    0.5643764    0.5643764    0.5879172
:EIG00011:       0.5879172    0.5879172    0.6902287    0.6902287    0.6902287
:EIG00016:       0.8578562    0.8578562    1.2597013    1.4838335    1.4838335
:EIG00021:       1.4838335    1.5892660
       ********************************************************

:KPT   :      NUMBER OF K-POINTS:   165
:GAP (global)   :    0.0    Ry =     0.0   eV (metal)
         Bandranges (emin - emax) and occupancy:
:BAN00001:   1   -2.079305   -2.066683  2.00000000
:BAN00002:   2   -0.790708   -0.712264  2.00000000
:BAN00003:   3   -0.763135   -0.712264  2.00000000
:BAN00004:   4   -0.741277   -0.712264  2.00000000
:BAN00005:   5    0.309110    0.531547  2.00000000
:BAN00006:   6    0.488449    0.558789  2.00000000
:BAN00007:   7    0.546045    0.569230  1.00000000
:BAN00008:   8    0.560938    0.571509  0.00000000
:BAN00009:   9    0.564376    0.575762  0.00000000
:BAN00010:  10    0.570371    0.587917  0.00000000
:BAN00011:  11    0.573027    0.587917  0.00000000
:BAN00012:  12    0.576249    0.595771  0.00000000
        Energy to separate low and high energystates:    0.25911


:NOE  : NUMBER OF ELECTRONS          =   13.000

:FER  : F E R M I - ENERGY(TETRAH.M.)=   0.5599513759
:GMA  : POTENTIAL AND CHARGE CUT-OFF  12.00 Ry**.5

:POS001: ATOM    1 X,Y,Z = 0.00000 0.00000 0.50000  MULT= 1  ZZ= 59.000  Pr        

       LMMAX  5
       LM=   0 0  4 0  4 4  6 0  6 4

:CHA001: TOTAL VALENCE CHARGE INSIDE SPHERE   1 =  10.0718    (RMT=  2.5000 )
:PCS001: PARTIAL CHARGES SPHERE =  1 S,P,D,F,      D-EG,D-T2G 
:QTL001: 2.0295 5.3570 0.6134 2.0716 0.0000 0.0000 0.0000 0.2185 0.3949 0.0000 0.0000 0.0000
        Q-s-low E-s-low   Q-p-low E-p-low   Q-d-low E-d-low   Q-f-low E-f-low
:EPL001:  1.9259 -2.0693    5.2905 -0.7453    0.0011 -0.7609    0.0003 -0.7628
        Q-s-hi  E-s-hi    Q-p-hi  E-p-hi    Q-d-hi  E-d-hi    Q-f-hi  E-f-hi 
:EPH001:  0.1036  0.4579    0.0665  0.4961    0.6123  0.5099    2.0713  0.5463

:CHA  : TOTAL VALENCE CHARGE INSIDE UNIT CELL =      13.000000

:SUM  : SUM OF EIGENVALUES =          -6.026267480


        1.ATOM      Pr                   14 CORE STATES
:1S 001: 1S               -3067.049447217 Ry
:2S 001: 2S                -492.801355785 Ry
:2PP001: 2P*               -465.900755522 Ry
:2P 001: 2P                -430.503169147 Ry
:3S 001: 3S                -105.888767078 Ry
:3PP001: 3P*                -94.426752092 Ry
:3P 001: 3P                 -87.418773594 Ry
:3DD001: 3D*                -67.346199085 Ry
:3D 001: 3D                 -65.834584424 Ry
:4S 001: 4S                 -20.564170418 Ry
:4PP001: 4P*                -16.270960711 Ry
:4P 001: 4P                 -14.743521072 Ry
:4DD001: 4D*                 -7.676447668 Ry
:4D 001: 4D                  -7.407032117 Ry
:CINT001 Core Integral Atom   1   45.999519

       DENSITY AT NUCLEUS
        JATOM        VALENCE       SEMI-CORE          CORE           TOTAL
:RTO001:   1      651.236095        0.000000   656825.177894   657476.413990
     
       CHARGES OF NEW CHARGE DENSITY
:NTO   : INTERSTITIAL CHARGE =     2.928224
:NPC   : PW Pseudocharge     =     7.633700
:NTO001: CHARGE SPHERE  1    =    56.071294

:NEC01: NUCLEAR AND ELECTRONIC CHARGE     59.00000    58.99952
     
       CHARGES OF OLD CHARGE DENSITY
:OTO   : INTERSTITIAL CHARGE =     2.923146
:OPC   : PW Pseudocharge     =     7.632946
:OTO001: CHARGE SPHERE  1    =    56.076854

:NEC02: NUCLEAR AND ELECTRONIC CHARGE     59.00000    59.00000
     
       CONVERGENCE TEST
:DTO001: DIFFERENCE IN SPHERE  1 =  0.0164776

:DIS  :  CHARGE DISTANCE       ( 0.0164776 for atom    1 spin 1)      0.0164776
 PW Mixed is           55
 
******************************************************
* MULTISECANT MIXING VER9 RELEASE 10.4.0              *
* Standard Mode with controls                        *
* Fixed density scale                                *
* Regularization       1.000E-04                     *
* Trust Upper Limit    5.000E+00                     *
* Max Number of Memory Steps    8                    *
******************************************************
 
:PWTMP   1.8127E+02  1.2500E+02  2.4672E+02
:PLANE:  PW TOTAL      2.9895 DISTAN   1.59E-03  5.33E-02 %
:CHARG:  CLM/ATOM    977.1847 DISTAN   2.28E-02  2.33E-03 %
 
Step History
        DMIX         DMIXT        Red     Pred      Trust     Lambda    MagRel    MagAbs     Beta
  1   3.5000E-02   3.5000E-02 -1.00E+00  1.00E+00 -1.00E+01  1.00E+00  3.50E-02  3.50E-02  1.00E+00
  2   2.5000E-02   2.5000E-02  7.67E-01  1.00E+00 -1.00E+01  1.00E+00  2.50E-02  2.05E-02  1.00E+00
  3   2.9454E-02   2.9454E-02  9.55E-01  1.00E+00 -1.00E+01  8.87E-02  2.95E-02  1.85E-02  1.00E+00
  4   2.5779E-02   2.5779E-02  9.54E-01  9.17E-01  2.01E-01  1.66E+00  5.00E-02  3.00E-02  8.61E-01
  5   6.4448E-02   5.5988E-02  7.70E-01  9.22E-01  2.54E-01  7.39E-01  2.54E-01  1.45E-01  1.00E+00
  6   1.6112E-01   1.3748E-01  4.24E-01  4.07E-01  5.74E-01  1.08E+00  5.74E-01  2.53E-01  1.00E+00
  7   6.4448E-02   6.2223E-02  2.53E-01  2.72E-01  7.66E-01  9.86E-01  7.66E-01  1.43E-01  1.00E+00
  8   1.4060E-01   1.4060E-01 -1.00E+00  4.65E-01  1.02E+00  1.00E+00  6.49E-01  3.07E-02  1.00E+00
:JACOBIANS    9.953E-01   1.307E+00
  
:NORMS:  1/Froebius, Min, Max, Used   0.9209E+00  0.4034E+00  0.1000E+01  0.9694E+00
:INFO :  Number of Memory Steps    7 Skipping    0
:INFO :  SLambda=    1.2669893887  Max    1.2669893887
:PREDicted Charge, CTotal, PW Trust    2.389E-03   2.389E-03   1.414E-03
:PREDicted DMix, Beta, BLim   5.6602E-01  1.2163E+00  8.1371E-01

Eigenvalues, unscaled except for SY+YY
   #     SY Real        SY Imag          SS             YY         SY+YY Real      SY+YY Imag
   1   5.638652E+00   0.000000E+00   5.571796E+00   5.929241E+00   1.306543E+01   0.000000E+00
   2   2.904681E-01   0.000000E+00   2.815168E-01   7.384120E-01   9.613127E-01   0.000000E+00
   3   1.310547E-01   0.000000E+00   8.259986E-02   2.758984E-01   5.750735E-01   0.000000E+00
   4   1.225866E-02   0.000000E+00   8.053420E-04   5.640599E-02   9.184711E-02   0.000000E+00
   5   5.185671E-06   0.000000E+00   6.569987E-07   4.270184E-05   4.858306E-05   0.000000E+00
   6  -2.087396E-09   0.000000E+00   7.363831E-09   1.879819E-07   1.661518E-07   0.000000E+00
   7  -2.400175E-15   0.000000E+00  -1.048390E-16   1.242452E-08   1.578783E-08   0.000000E+00
 
:INFO :  Singular value  1.307E+01 Weight  1.000E+00 Projection  2.332E-03
:INFO :  Singular value  9.619E-01 Weight  1.000E+00 Projection -2.133E-03
:INFO :  Singular value  5.749E-01 Weight  1.000E+00 Projection -8.654E-03
:INFO :  Singular value  9.181E-02 Weight  1.000E+00 Projection -8.442E-02
:INFO :  Singular value  4.860E-05 Weight  6.672E-03 Projection -5.062E-04
:INFO :  Singular value  1.670E-07 Weight  7.930E-08 Projection -3.485E-07
:INFO :  Singular value  1.571E-08 Weight  7.017E-10 Projection -7.319E-09
:RANK :  ACTIVE   4.01/7  =  57.24 % ; YY RANK   4.01/7  =  57.21 %
 
:BLIM :  VZERO Control Off
:TRUST:  Step 1.36E+00  Charge 6.00E-02 (e) CTO  2.00E-01 (e) PW  2.80E-01 (e)
:DIRM :  MEMORY  7/8  SCALE   1.000 RED  0.48 PRED  0.47 NEXT  0.15 
:TRAVE:  Charge 1.56E-03 (e) CTO  1.56E-03 (e) PW  6.20E-03 (e)
:DIRP :  |MSR1|= 9.112E-04 |PRATT|= 1.594E-03 ANGLE=  67.2 DEGREES
:DIRQ :  |MSR1|= 1.077E-02 |PRATT|= 2.276E-02 ANGLE=  32.4 DEGREES
:DIRT :  |MSR1|= 1.081E-02 |PRATT|= 2.282E-02 ANGLE=  32.7 DEGREES
:MIX  :   MSE1   REGULARIZATION:  5.93E-04 GREED: 0.33917  Newton 1.00  0.4738                
     
       CHARGES OF MIXED CHARGE DENSITY
:CTO   : INTERSTITIAL CHARGE =     2.922269
:CPC   : PW Pseudocharge     =     7.632190
:CTO001: CHARGE SPHERE  1    =    56.077731

:NEC03: NUCLEAR AND ELECTRONIC CHARGE     59.00000    59.00000

PW CHANGE     H    K    L      Current       Change    Residue
:PTO001:      0    0    0  4.27796513E-02 -6.621E-06  3.067E-05
:PTO002:     -1   -1   -1 -1.33316119E-01  3.361E-05  3.247E-05
:PTO003:      0    0   -2  7.88995124E-02  3.031E-06  1.018E-05
:PTO004:      0   -2   -2  6.78860876E-02 -1.788E-05 -1.355E-05
:PTO005:     -1   -1   -3 -6.37650010E-02  4.744E-05  5.532E-05
:PTO006:     -2   -2   -2  1.61764909E-02 -3.511E-05 -4.808E-05
:PTO007:      0    0   -4  2.60723090E-03 -3.161E-06 -2.237E-06
[...]
 Extension of core to zero
 LDM version in phi
 Fifth-order quadrature in outwin


            ---------
:ITE012: 12. ITERATION
            ---------

:NATO :    1 INDEPENDENT AND    1 TOTAL ATOMS IN UNITCELL
       SUBSTANCE: blebleble                                                   

       LATTICE                      = F   
:POT  : POTENTIAL OPTION EX_LDA EC_LDA VX_LDA VC_LDA
:LAT  : LATTICE CONSTANTS=  9.95603  9.95603  9.95603    1.571    1.571    1.571
:VOL  : UNIT CELL VOLUME =     246.71680
       MODE OF CALCULATION IS       = RELA
       NON-SPINPOLARIZED CALCULATION
:IFFT  : FFT-parameters:   80   80   80 Factor: 2.00


   CONVERGENCE PARAMETER FOR PSEUDOCHARGE: NCON=  9
   MAXIMAL VALUE OF RMT(JATOM)*ABSK(NKK) : RK  =29.93539


:VKCOUL :  VK-COUL convergence: 0.268E-06
       ATOMNUMBER=  1 Pr         VCOUL-ZERO =  0.22155E+00
:FIT001: LUSE= 13 SIGMA OF V-XC FIT FOR ATOM  1  0.4886241E-04
:FIT001: LUSE= 13 SIGMA OF V-XC FIT FOR ATOM  1  0.4886241E-04
:DEN  : DENSITY INTEGRAL  =         -7069.99082036   (Ry)
       ELS_POTENTIAL_AT Z=0 and Z=0.5:  -2.47171  -2.47171
       ELS_POTENTIAL_AT Y=0 and Y=0.5:   0.00000   0.00000
:VZERO:v0,v0c,v0x  -3.43827  -2.47171  -0.96655 v5,v5c,v5x  -3.43827  -2.47171  -0.96655
:VZERY:v0,v0c,v0x  -0.70502   0.00000  -0.70502 v5,v5c,v5x  -0.70502   0.00000  -0.70502
:VZERX:v0,v0c,v0x  -0.70502   0.00000  -0.70502 v5,v5c,v5x  -0.70502   0.00000  -0.70502
:LMAX-WF:   10   Non-Spherical LMAX:   4

          ATOMIC SPHERE DEPENDENT PARAMETERS FOR ATOM  Pr        
:e__0001: OVERALL ENERGY PARAMETER IS    0.3595
          OVERALL BASIS SET ON ATOM IS LAPW
:E0_0001: E( 0)=    0.3595
             APW+lo
:E0_0001: E( 0)=   -2.1191   E(BOTTOM)=   -2.499   E(TOP)=   -1.739  4  5   170
             LOCAL ORBITAL
:E1_0001: E( 1)=    0.7595
             APW+lo
:E1_0001: E( 1)=   -0.7305   E(BOTTOM)=   -1.376   E(TOP)=   -0.085  3  4   164
             LOCAL ORBITAL
:E3_0001: E( 3)=    0.5487   E(BOTTOM)=    0.408   E(TOP)=    0.690  0  1   114
             APW+lo
:E2_0001: E( 2)=    0.3595   E(BOTTOM)=    0.200   E(TOP)= -200.000  2 -1    87
             APW+lo

       K=   0.00000   0.00000   0.00000            1
:RKM  : MATRIX SIZE   189LOs:  20  RKM= 8.20  WEIGHT= 1.00  PGR:    
       EIGENVALUES ARE:
:EIG00001:      -2.0793362   -0.7122610   -0.7122610   -0.7122610    0.3090501
:EIG00006:       0.5470722    0.5638912    0.5638912    0.5638912    0.5872694
:EIG00011:       0.5872694    0.5872694    0.6902015    0.6902015    0.6902015
:EIG00016:       0.8579073    0.8579073    1.2594219    1.4837568    1.4837568
:EIG00021:       1.4837568    1.5892117
       ********************************************************

:KPT   :      NUMBER OF K-POINTS:   165
:GAP (global)   :    0.0    Ry =     0.0   eV (metal)
         Bandranges (emin - emax) and occupancy:
:BAN00001:   1   -2.079336   -2.066716  2.00000000
:BAN00002:   2   -0.790705   -0.712261  2.00000000
:BAN00003:   3   -0.763132   -0.712261  2.00000000
:BAN00004:   4   -0.741273   -0.712261  2.00000000
:BAN00005:   5    0.309050    0.531343  2.00000000
:BAN00006:   6    0.488387    0.558333  2.00000000
:BAN00007:   7    0.545692    0.568613  1.00000000
:BAN00008:   8    0.560427    0.570919  0.00000000
:BAN00009:   9    0.563891    0.575059  0.00000000
:BAN00010:  10    0.569752    0.587269  0.00000000
:BAN00011:  11    0.572523    0.587269  0.00000000
:BAN00012:  12    0.575707    0.595436  0.00000000
        Energy to separate low and high energystates:    0.25905


:NOE  : NUMBER OF ELECTRONS          =   13.000

:FER  : F E R M I - ENERGY(TETRAH.M.)=   0.5594369340
:GMA  : POTENTIAL AND CHARGE CUT-OFF  12.00 Ry**.5

:POS001: ATOM    1 X,Y,Z = 0.00000 0.00000 0.50000  MULT= 1  ZZ= 59.000  Pr        

       LMMAX  5
       LM=   0 0  4 0  4 4  6 0  6 4

:CHA001: TOTAL VALENCE CHARGE INSIDE SPHERE   1 =  10.0783    (RMT=  2.5000 )
:PCS001: PARTIAL CHARGES SPHERE =  1 S,P,D,F,      D-EG,D-T2G 
:QTL001: 2.0294 5.3567 0.6104 2.0816 0.0000 0.0000 0.0000 0.2175 0.3929 0.0000 0.0000 0.0000
        Q-s-low E-s-low   Q-p-low E-p-low   Q-d-low E-d-low   Q-f-low E-f-low
:EPL001:  1.9259 -2.0693    5.2905 -0.7452    0.0011 -0.7609    0.0003 -0.7628
        Q-s-hi  E-s-hi    Q-p-hi  E-p-hi    Q-d-hi  E-d-hi    Q-f-hi  E-f-hi 
:EPH001:  0.1035  0.4578    0.0661  0.4956    0.6093  0.5096    2.0813  0.5459

:CHA  : TOTAL VALENCE CHARGE INSIDE UNIT CELL =      13.000000

:SUM  : SUM OF EIGENVALUES =          -6.027651211


        1.ATOM      Pr                   14 CORE STATES
:1S 001: 1S               -3067.049582088 Ry
:2S 001: 2S                -492.802267097 Ry
:2PP001: 2P*               -465.901527239 Ry
:2P 001: 2P                -430.503995253 Ry
:3S 001: 3S                -105.890436065 Ry
:3PP001: 3P*                -94.428386360 Ry
:3P 001: 3P                 -87.420429400 Ry
:3DD001: 3D*                -67.347792809 Ry
:3D 001: 3D                 -65.836188460 Ry
:4S 001: 4S                 -20.565350522 Ry
:4PP001: 4P*                -16.272092185 Ry
:4P 001: 4P                 -14.744583313 Ry
:4DD001: 4D*                 -7.677399513 Ry
:4D 001: 4D                  -7.407962262 Ry
:CINT001 Core Integral Atom   1   45.999520

       DENSITY AT NUCLEUS
        JATOM        VALENCE       SEMI-CORE          CORE           TOTAL
:RTO001:   1      651.234998        0.000000   656825.129326   657476.364323
     
       CHARGES OF NEW CHARGE DENSITY
:NTO   : INTERSTITIAL CHARGE =     2.921678
:NPC   : PW Pseudocharge     =     7.630885
:NTO001: CHARGE SPHERE  1    =    56.077841

:NEC01: NUCLEAR AND ELECTRONIC CHARGE     59.00000    58.99952
     
       CHARGES OF OLD CHARGE DENSITY
:OTO   : INTERSTITIAL CHARGE =     2.922124
:OPC   : PW Pseudocharge     =     7.632126
:OTO001: CHARGE SPHERE  1    =    56.077876

:NEC02: NUCLEAR AND ELECTRONIC CHARGE     59.00000    59.00000
     
       CONVERGENCE TEST
:DTO001: DIFFERENCE IN SPHERE  1 =  0.0000841

:DIS  :  CHARGE DISTANCE       ( 0.0000841 for atom    1 spin 1)      0.0000841
 PW Mixed is           55
 
******************************************************
* MULTISECANT MIXING VER9 RELEASE 10.4.0              *
* Standard Mode with controls                        *
* Fixed density scale                                *
* Regularization       1.000E-04                     *
* Trust Upper Limit    5.000E+00                     *
* Max Number of Memory Steps    8                    *
******************************************************
 
:PWTMP   1.8127E+02  1.2500E+02  2.4672E+02
:PLANE:  PW TOTAL      2.9889 DISTAN   9.06E-06  3.03E-04 %
:CHARG:  CLM/ATOM    977.1876 DISTAN   8.45E-05  8.65E-06 %
 
Step History
        DMIX         DMIXT        Red     Pred      Trust     Lambda    MagRel    MagAbs     Beta
  4   2.5779E-02   2.5779E-02  9.54E-01  9.17E-01  2.01E-01  1.66E+00  5.00E-02  3.00E-02  8.61E-01
  5   6.4448E-02   5.5988E-02  7.70E-01  9.22E-01  2.54E-01  7.39E-01  2.54E-01  1.45E-01  1.00E+00
  6   1.6112E-01   1.3748E-01  4.24E-01  4.07E-01  5.74E-01  1.08E+00  5.74E-01  2.53E-01  1.00E+00
  7   6.4448E-02   6.2223E-02  2.53E-01  2.72E-01  7.66E-01  9.86E-01  7.66E-01  1.43E-01  1.00E+00
  8   1.4060E-01   1.4060E-01  4.82E-01  4.65E-01  1.02E+00  1.27E+00  6.49E-01  3.07E-02  1.00E+00
  9   3.3917E-01   3.3917E-01  1.56E-01  1.55E-01  1.36E+00  1.36E+00  4.74E-01  1.08E-02  1.00E+00
 10   2.3248E-01   2.3248E-01  3.70E-01  3.74E-01  2.66E+00  1.39E+00  3.17E-01  1.13E-03  1.00E+00
 11   3.5000E-01   3.5000E-01  3.32E-01  2.27E-01  3.61E+00  1.43E+00  5.81E-01  7.66E-04  1.00E+00
 12   3.5000E-01   3.5000E-01 -1.00E+00  9.55E-02  5.58E+00  1.00E+00  4.43E-01  1.94E-04  1.00E+00
:JACOBIANS    1.034E+00   2.998E+00
  
:NORMS:  1/Froebius, Min, Max, Used   0.7508E+00  0.6854E+00  0.1001E+01  0.9048E+00
:INFO :  Number of Memory Steps    8 Skipping    3
:INFO :  SLambda=    1.4574838286  Max    1.4574838286
:PREDicted Charge, CTotal, PW Trust    1.371E-05   1.371E-05   7.968E-07
:PREDicted DMix, Beta, BLim   1.2226E-01  1.0015E+00  2.1991E+00

Eigenvalues, unscaled except for SY+YY
   #     SY Real        SY Imag          SS             YY         SY+YY Real      SY+YY Imag
   1   3.445062E+00   0.000000E+00   3.325847E+00   4.062498E+00   8.849538E+00   0.000000E+00
   2   1.041879E+00   0.000000E+00   7.455360E-01   2.696123E+00   4.290379E+00   0.000000E+00
   3   4.348988E-01   0.000000E+00   2.729210E-01   7.237447E-01   1.361575E+00   0.000000E+00
   4   2.530671E-01   0.000000E+00   1.434987E-01   4.771294E-01   9.895859E-01   0.000000E+00
   5   2.266713E-02   0.000000E+00   2.102751E-02   3.175066E-02   7.018586E-02   0.000000E+00
   6   3.387578E-03   0.000000E+00   4.390369E-04   8.733322E-03   1.903350E-02   0.000000E+00
   7   8.961871E-07   0.000000E+00   6.219597E-06   1.945809E-05   3.218175E-06   0.000000E+00
   8   1.091879E-05   0.000000E+00   4.174778E-07   1.873266E-06   3.482305E-05   0.000000E+00
 
:INFO :  Singular value  8.853E+00 Weight  1.000E+00 Projection  9.472E-06
:INFO :  Singular value  4.294E+00 Weight  1.000E+00 Projection -3.455E-05
:INFO :  Singular value  1.364E+00 Weight  1.000E+00 Projection -2.175E-07
:INFO :  Singular value  9.870E-01 Weight  1.000E+00 Projection -3.459E-05
:INFO :  Singular value  7.017E-02 Weight  1.000E+00 Projection -7.954E-05
:INFO :  Singular value  1.903E-02 Weight  9.995E-01 Projection  1.950E-04
:INFO :  Singular value  3.483E-05 Weight  7.297E-03 Projection -2.721E-05
:INFO :  Singular value  3.217E-06 Weight  6.272E-05 Projection -2.521E-07
:RANK :  ACTIVE   6.01/8  =  75.09 % ; YY RANK   6.00/8  =  75.00 %
 
:BLIM :  VZERO Control Off
:TRUST:  Step 1.44E+01  Charge 2.46E-02 (e) CTO  8.19E-02 (e) PW  1.15E-01 (e)
:DIRM :  MEMORY  8/8  SCALE   1.000 RED  0.19 PRED  0.10 NEXT  0.20 
:TRAVE:  Charge 1.13E-04 (e) CTO  1.13E-04 (e) PW  3.96E-04 (e)
:DIRP :  |MSR1|= 1.389E-06 |PRATT|= 9.060E-06 ANGLE=  70.3 DEGREES
:DIRQ :  |MSR1|= 1.017E-05 |PRATT|= 8.455E-05 ANGLE=  50.6 DEGREES
:DIRT :  |MSR1|= 1.026E-05 |PRATT|= 8.503E-05 ANGLE=  50.9 DEGREES
:MIX  :   MSE1   REGULARIZATION:  4.06E-04 GREED: 0.22102  Newton 1.00  0.1207                
     
       CHARGES OF MIXED CHARGE DENSITY
:CTO   : INTERSTITIAL CHARGE =     2.922124
:CPC   : PW Pseudocharge     =     7.632126
:CTO001: CHARGE SPHERE  1    =    56.077876

:NEC03: NUCLEAR AND ELECTRONIC CHARGE     59.00000    59.00000

PW CHANGE     H    K    L      Current       Change    Residue
:PTO001:      0    0    0  4.27788017E-02 -2.078E-10  2.069E-07
:PTO002:     -1   -1   -1 -1.33308081E-01  2.837E-08 -6.422E-08
:PTO003:      0    0   -2  7.89062936E-02 -2.138E-08 -1.164E-07
:PTO004:      0   -2   -2  6.78865257E-02  1.049E-08  6.341E-08
:PTO005:     -1   -1   -3 -6.37628564E-02  8.876E-08  2.593E-07
:PTO006:     -2   -2   -2  1.61696307E-02 -6.107E-08 -1.343E-07
:PTO007:      0    0   -4  2.60900960E-03 -1.198E-08 -5.277E-08
:PTO008:     -1   -3   -3 -1.44966061E-03 -1.408E-08 -4.215E-08
:PTO009:      0   -2   -4 -1.37509095E-03  2.050E-08  1.998E-08
:PTO010:     -2   -2   -4 -6.74397924E-03  1.580E-08  2.775E-08
:PTO011:     -3   -3   -3  2.68996719E-03 -1.234E-09 -3.760E-09
:PTO012:     -1   -1   -5  7.75872117E-03 -1.416E-08  1.226E-09

:ENE  : ********** TOTAL ENERGY IN Ry =       -18472.07946017


:LABEL1: Calculations in /home/ykent/GWIEN/example/Pr/V12/case
:LABEL2: on didymium-2.cmpgroup.ameslab.gov at Wed Jul  8 16:11:16 CDT 2020
:LABEL3: using WIEN2k_19.1 (Release 25/6/2019) in /home/ykent/opt/src/WIEN2k_19.1
:LABEL4: using the command: run_lapw -cc 0.0001
 Flat Integration
 New Mode for Coulomb Integral
 Consistent 3/8+Simpson combinations
 Extension of core to zero
 LDM version in phi
 Fifth-order quadrature in outwin


            ---------
:ITE013: 13. ITERATION
            ---------

:NATO :    1 INDEPENDENT AND    1 TOTAL ATOMS IN UNITCELL
       SUBSTANCE: blebleble                                                   

       LATTICE                      = F   
:POT  : POTENTIAL OPTION EX_LDA EC_LDA VX_LDA VC_LDA
:LAT  : LATTICE CONSTANTS=  9.95603  9.95603  9.95603    1.571    1.571    1.571
:VOL  : UNIT CELL VOLUME =     246.71680
       MODE OF CALCULATION IS       = RELA
       NON-SPINPOLARIZED CALCULATION
:IFFT  : FFT-parameters:   80   80   80 Factor: 2.00


   CONVERGENCE PARAMETER FOR PSEUDOCHARGE: NCON=  9
   MAXIMAL VALUE OF RMT(JATOM)*ABSK(NKK) : RK  =29.93539


:VKCOUL :  VK-COUL convergence: 0.268E-06
       ATOMNUMBER=  1 Pr         VCOUL-ZERO =  0.22155E+00
:FIT001: LUSE= 13 SIGMA OF V-XC FIT FOR ATOM  1  0.4886428E-04
:FIT001: LUSE= 13 SIGMA OF V-XC FIT FOR ATOM  1  0.4886428E-04
:DEN  : DENSITY INTEGRAL  =         -7069.99055830   (Ry)
       ELS_POTENTIAL_AT Z=0 and Z=0.5:  -2.47171  -2.47171
       ELS_POTENTIAL_AT Y=0 and Y=0.5:   0.00000   0.00000
:VZERO:v0,v0c,v0x  -3.43827  -2.47171  -0.96655 v5,v5c,v5x  -3.43827  -2.47171  -0.96655
:VZERY:v0,v0c,v0x  -0.70502   0.00000  -0.70502 v5,v5c,v5x  -0.70502   0.00000  -0.70502
:VZERX:v0,v0c,v0x  -0.70502   0.00000  -0.70502 v5,v5c,v5x  -0.70502   0.00000  -0.70502
:LMAX-WF:   10   Non-Spherical LMAX:   4

          ATOMIC SPHERE DEPENDENT PARAMETERS FOR ATOM  Pr        
:e__0001: OVERALL ENERGY PARAMETER IS    0.3594
          OVERALL BASIS SET ON ATOM IS LAPW
:E0_0001: E( 0)=    0.3594
             APW+lo
:E0_0001: E( 0)=   -2.1191   E(BOTTOM)=   -2.499   E(TOP)=   -1.739  4  5   170
             LOCAL ORBITAL
:E1_0001: E( 1)=    0.7594
             APW+lo
:E1_0001: E( 1)=   -0.7305   E(BOTTOM)=   -1.376   E(TOP)=   -0.085  3  4   165
             LOCAL ORBITAL
:E3_0001: E( 3)=    0.5487   E(BOTTOM)=    0.408   E(TOP)=    0.690  0  1   118
             APW+lo
:E2_0001: E( 2)=    0.3594   E(BOTTOM)=    0.200   E(TOP)= -200.000  2 -1    89
             APW+lo

       K=   0.00000   0.00000   0.00000            1
:RKM  : MATRIX SIZE   189LOs:  20  RKM= 8.20  WEIGHT= 1.00  PGR:    
       EIGENVALUES ARE:
:EIG00001:      -2.0793372   -0.7122618   -0.7122618   -0.7122618    0.3090501
:EIG00006:       0.5470698    0.5638887    0.5638887    0.5638887    0.5872668
:EIG00011:       0.5872668    0.5872668    0.6902013    0.6902013    0.6902013
:EIG00016:       0.8579070    0.8579070    1.2594214    1.4837565    1.4837565
:EIG00021:       1.4837565    1.5892117
       ********************************************************

:KPT   :      NUMBER OF K-POINTS:   165
:GAP (global)   :    0.0    Ry =     0.0   eV (metal)
         Bandranges (emin - emax) and occupancy:
:BAN00001:   1   -2.079337   -2.066717  2.00000000
:BAN00002:   2   -0.790706   -0.712262  2.00000000
:BAN00003:   3   -0.763132   -0.712262  2.00000000
:BAN00004:   4   -0.741274   -0.712262  2.00000000
:BAN00005:   5    0.309050    0.531342  2.00000000
:BAN00006:   6    0.488387    0.558331  2.00000000
:BAN00007:   7    0.545690    0.568610  1.00000000
:BAN00008:   8    0.560425    0.570916  0.00000000
:BAN00009:   9    0.563889    0.575056  0.00000000
:BAN00010:  10    0.569749    0.587267  0.00000000
:BAN00011:  11    0.572521    0.587267  0.00000000
:BAN00012:  12    0.575705    0.595434  0.00000000
        Energy to separate low and high energystates:    0.25905


:NOE  : NUMBER OF ELECTRONS          =   13.000

:FER  : F E R M I - ENERGY(TETRAH.M.)=   0.5594347145
:GMA  : POTENTIAL AND CHARGE CUT-OFF  12.00 Ry**.5

:POS001: ATOM    1 X,Y,Z = 0.00000 0.00000 0.50000  MULT= 1  ZZ= 59.000  Pr        

       LMMAX  5
       LM=   0 0  4 0  4 4  6 0  6 4

:CHA001: TOTAL VALENCE CHARGE INSIDE SPHERE   1 =  10.0784    (RMT=  2.5000 )
:PCS001: PARTIAL CHARGES SPHERE =  1 S,P,D,F,      D-EG,D-T2G 
:QTL001: 2.0294 5.3567 0.6104 2.0817 0.0000 0.0000 0.0000 0.2175 0.3928 0.0000 0.0000 0.0000
        Q-s-low E-s-low   Q-p-low E-p-low   Q-d-low E-d-low   Q-f-low E-f-low
:EPL001:  1.9259 -2.0693    5.2905 -0.7452    0.0011 -0.7609    0.0003 -0.7628
        Q-s-hi  E-s-hi    Q-p-hi  E-p-hi    Q-d-hi  E-d-hi    Q-f-hi  E-f-hi 
:EPH001:  0.1035  0.4578    0.0661  0.4956    0.6092  0.5096    2.0814  0.5459

:CHA  : TOTAL VALENCE CHARGE INSIDE UNIT CELL =      13.000000

:SUM  : SUM OF EIGENVALUES =          -6.027663276


        1.ATOM      Pr                   14 CORE STATES
:1S 001: 1S               -3067.049588819 Ry
:2S 001: 2S                -492.802273917 Ry
:2PP001: 2P*               -465.901534079 Ry
:2P 001: 2P                -430.504002088 Ry
:3S 001: 3S                -105.890442294 Ry
:3PP001: 3P*                -94.428392628 Ry
:3P 001: 3P                 -87.420435614 Ry
:3DD001: 3D*                -67.347799156 Ry
:3D 001: 3D                 -65.836194791 Ry
:4S 001: 4S                 -20.565354720 Ry
:4PP001: 4P*                -16.272096282 Ry
:4P 001: 4P                 -14.744587242 Ry
:4DD001: 4D*                 -7.677403179 Ry
:4D 001: 4D                  -7.407965874 Ry
:CINT001 Core Integral Atom   1   45.999520

       DENSITY AT NUCLEUS
        JATOM        VALENCE       SEMI-CORE          CORE           TOTAL
:RTO001:   1      651.235034        0.000000   656825.129724   657476.364758
     
       CHARGES OF NEW CHARGE DENSITY
:NTO   : INTERSTITIAL CHARGE =     2.921649
:NPC   : PW Pseudocharge     =     7.630874
:NTO001: CHARGE SPHERE  1    =    56.077870

:NEC01: NUCLEAR AND ELECTRONIC CHARGE     59.00000    58.99952
     
       CHARGES OF OLD CHARGE DENSITY
:OTO   : INTERSTITIAL CHARGE =     2.922124
:OPC   : PW Pseudocharge     =     7.632126
:OTO001: CHARGE SPHERE  1    =    56.077876

:NEC02: NUCLEAR AND ELECTRONIC CHARGE     59.00000    59.00000
     
       CONVERGENCE TEST
:DTO001: DIFFERENCE IN SPHERE  1 =  0.0000267

:DIS  :  CHARGE DISTANCE       ( 0.0000267 for atom    1 spin 1)      0.0000267
 PW Mixed is           55
 
******************************************************
* MULTISECANT MIXING VER9 RELEASE 10.4.0              *
* Standard Mode with controls                        *
* Fixed density scale                                *
* Regularization       1.000E-04                     *
* Trust Upper Limit    5.000E+00                     *
* Max Number of Memory Steps    8                    *
******************************************************
 
:INFO : Forcing a restart
:PWTMP   1.8127E+02  1.2500E+02  2.4672E+02
:PLANE:  PW TOTAL      2.9889 DISTAN   2.81E-06  9.39E-05 %
:CHARG:  CLM/ATOM    977.1876 DISTAN   2.69E-05  2.76E-06 %
 
Step History
        DMIX         DMIXT        Red     Pred      Trust     Lambda    MagRel    MagAbs     Beta
  1   3.5000E-02   3.5000E-02 -1.00E+00  1.00E+00 -1.00E+01  1.00E+00  3.50E-02  3.50E-02  1.00E+00
:INFO :  Note, Pratt in use
:TRUST:  Step 2.25E-01  Charge 7.50E-02 (e) CTO  2.50E-01 (e) PW  3.50E-01 (e)
:DIRM :  MEMORY  0/ 8 SCALE   1.000
Performing Pseudo Compensation
Final Pseudo Compensation Rescaling     1.00000E+00
:MIX  :   PRATT  REGULARIZATION:  1.00E-04 GREED: 0.15000                  
     
       CHARGES OF MIXED CHARGE DENSITY
:CTO   : INTERSTITIAL CHARGE =     2.922125
:CPC   : PW Pseudocharge     =     7.632127
:CTO001: CHARGE SPHERE  1    =    56.077875

:NEC03: NUCLEAR AND ELECTRONIC CHARGE     59.00000    59.00000

PW CHANGE     H    K    L      Current       Change    Residue
:PTO001:      0    0    0  4.27788135E-02  1.179E-08  4.505E-08
:PTO002:     -1   -1   -1 -1.33308110E-01 -2.896E-08 -7.557E-08
:PTO003:      0    0   -2  7.89062937E-02  4.971E-11 -6.257E-08
:PTO004:      0   -2   -2  6.78865325E-02  6.779E-09  3.982E-08
:PTO005:     -1   -1   -3 -6.37628315E-02  2.492E-08  1.118E-07
:PTO006:     -2   -2   -2  1.61696185E-02 -1.219E-08 -6.053E-08
:PTO007:      0    0   -4  2.60900495E-03 -4.646E-09 -1.785E-08
:PTO008:     -1   -3   -3 -1.44966384E-03 -3.235E-09 -4.390E-08
:PTO009:      0   -2   -4 -1.37508798E-03  2.969E-09  3.054E-08
:PTO010:     -2   -2   -4 -6.74396889E-03  1.035E-08  3.426E-08
:PTO011:     -3   -3   -3  2.68996282E-03 -4.368E-09 -8.196E-09
:PTO012:     -1   -1   -5  7.75870912E-03 -1.206E-08 -1.759E-08

:ENE  : ********** TOTAL ENERGY IN Ry =       -18472.07946016

