
------- case.scf0 --------
 Flat Integration
 New Mode for Coulomb Integral
 Consistent 3/8+Simpson combinations
 Extension of core to zero
 LDM version in phi
 Fifth-order quadrature in outwin


            ---------
:ITE010: 10. ITERATION
            ---------

:NATO :    2 INDEPENDENT AND    4 TOTAL ATOMS IN UNITCELL
       SUBSTANCE: FeSe                                                        

       LATTICE                      = P   
:POT  : POTENTIAL OPTION EX_LDA EC_LDA VX_LDA VC_LDA
:LAT  : LATTICE CONSTANTS=  7.12881  7.12881 10.43450    1.571    1.571    1.571
:VOL  : UNIT CELL VOLUME =     530.28024
       MODE OF CALCULATION IS       = RELA
       NON-SPINPOLARIZED CALCULATION
:IFFT  : FFT-parameters:   60   60   80 Factor: 2.00


   CONVERGENCE PARAMETER FOR PSEUDOCHARGE: NCON=  9
   MAXIMAL VALUE OF RMT(JATOM)*ABSK(NKK) : RK  =25.91023


:VKCOUL :  VK-COUL convergence: 0.230E-06
       ATOMNUMBER=  1 Fe         VCOUL-ZERO =  0.29092E+00
:EFG001:                        EFG         =     0.75474   *10**21  V / m**2
                               V20  TOT/SRF=     0.65362    -0.00108
                               V22  TOT/SRF=     0.00000     0.00000
                               V22M TOT/SRF=     0.00000     0.00000
                               V21  TOT/SRF=     0.00000     0.00000
                               V21M TOT/SRF=     0.00000     0.00000

             -0.37737    0.00000    0.00000       -0.37737    0.00000    0.00000
              0.00000   -0.37737    0.00000        0.00000   -0.37737    0.00000
              0.00000    0.00000    0.75474        0.00000    0.00000    0.75474

         MAIN DIRECTIONS OF THE EFG   1.0000  0.0000  0.0000
                                      0.0000  1.0000  0.0000
                                      0.0000  0.0000  1.0000
:ANG001:  ANGLE WITH OLD X-AXIS =         0.0

:ETA001:                         ASYMM. ETA =     0.00000


       ATOMNUMBER=  2 Se         VCOUL-ZERO =  0.76749E-01
:EFG002:                        EFG         =    -3.11492   *10**21  V / m**2
                               V20  TOT/SRF=    -2.69760     0.00904
                               V22  TOT/SRF=     0.00000     0.00000
                               V22M TOT/SRF=     0.00000     0.00000
                               V21  TOT/SRF=     0.00000     0.00000
                               V21M TOT/SRF=     0.00000     0.00000

              1.55746    0.00000    0.00000        1.55746    0.00000    0.00000
              0.00000    1.55746    0.00000        0.00000    1.55746    0.00000
              0.00000    0.00000   -3.11492        0.00000    0.00000   -3.11492

         MAIN DIRECTIONS OF THE EFG   1.0000  0.0000  0.0000
                                      0.0000  1.0000  0.0000
                                      0.0000  0.0000  1.0000
:ANG002:  ANGLE WITH OLD X-AXIS =         0.0

:ETA002:                         ASYMM. ETA =     0.00000


     HELLMANN-FEYNMAN-FORCE IN mRy/a.u. = |F|  Fx       Fy             Fz
:FHF001:   1.ATOM      0.000000000000      0.000000000000      0.000000000000      0.000000000000

     HELLMANN-FEYNMAN-FORCE IN mRy/a.u. = |F|  Fx       Fy             Fz
:FHF002:   2.ATOM   1222.471497574993      0.000000000000      0.000000000000   1222.471497574993

:FIT001: LUSE= 13 SIGMA OF V-XC FIT FOR ATOM  1  0.1038265E-02
:FIT001: LUSE= 13 SIGMA OF V-XC FIT FOR ATOM  1  0.1038265E-02
:FIT002: LUSE= 13 SIGMA OF V-XC FIT FOR ATOM  2  0.2182242E-03
:FIT002: LUSE= 13 SIGMA OF V-XC FIT FOR ATOM  2  0.2182242E-03
:DEN  : DENSITY INTEGRAL  =         -6218.91523237   (Ry)
       ELS_POTENTIAL_AT Z=0 and Z=0.5:  -0.68754   0.55160
       ELS_POTENTIAL_AT Y=0 and Y=0.5:   0.00000   0.00000
:VZERO:v0,v0c,v0x  -1.48604  -0.68754  -0.79851 v5,v5c,v5x  -0.04317   0.55160  -0.59478
:VZERY:v0,v0c,v0x  -0.72382   0.00000  -0.72382 v5,v5c,v5x  -0.72382   0.00000  -0.72382
:VZERX:v0,v0c,v0x   0.09214   0.78843  -0.69629 v5,v5c,v5x   0.09214   0.78843  -0.69629

------- case.scf1 --------
:LMAX-WF:   10   Non-Spherical LMAX:   4

          ATOMIC SPHERE DEPENDENT PARAMETERS FOR ATOM  Fe        
:e__0001: OVERALL ENERGY PARAMETER IS    0.1896
          OVERALL BASIS SET ON ATOM IS LAPW
:E1_0001: E( 1)=    0.1896
             APW+lo
:E1_0001: E( 1)=   -3.4801   E(BOTTOM)=   -3.570   E(TOP)=   -3.390  1  2   142
             LOCAL ORBITAL
:E2_0001: E( 2)=    0.3138   E(BOTTOM)=   -0.036   E(TOP)=    0.664  0  1   140
             APW+lo
:E0_0001: E( 0)=    0.1896
             APW+lo

          ATOMIC SPHERE DEPENDENT PARAMETERS FOR ATOM  Se        
:e__0002: OVERALL ENERGY PARAMETER IS    0.1896
          OVERALL BASIS SET ON ATOM IS LAPW
:E2_0002: E( 2)=    0.1896
             APW+lo
:E2_0002: E( 2)=   -3.1748   E(BOTTOM)=   -3.218   E(TOP)=   -3.131  0  1   139
             LOCAL ORBITAL
:E0_0002: E( 0)=    0.5896
             APW+lo
:E0_0002: E( 0)=   -1.0200   E(BOTTOM)=   -1.624   E(TOP)= -200.000  3 -1   179
             LOCAL ORBITAL
:E1_0002: E( 1)=    0.1896
             APW+lo

       K=   0.04545   0.04545   0.07143            1
:RKM  : MATRIX SIZE   582LOs:  54  RKM= 7.97  WEIGHT= 8.00  PGR:    
       EIGENVALUES ARE:
:EIG00001:      -3.4665262   -3.4663114   -3.4579711   -3.4578820   -3.4577561
:EIG00006:      -3.4559996   -3.1649744   -3.1649170   -3.1646930   -3.1646444
:EIG00011:      -3.1640553   -3.1640498   -3.1640312   -3.1640238   -3.1635198
:EIG00016:      -3.1634877   -0.6578723   -0.5623180   -0.0280851    0.1421285
:EIG00021:       0.1557537    0.1588682    0.1876755    0.1910650    0.2281784
:EIG00026:       0.3176889    0.3475500    0.3477449    0.3933316    0.4074846
:EIG00031:       0.4077883    0.4514663    0.5040149    0.5166128    0.5754433
:EIG00036:       0.7726446    0.8026655    0.8634913    0.8794978    0.9342325
:EIG00041:       1.1838327    1.2903629    1.3214747    1.3385997    1.3504676
:EIG00046:       1.4100276    1.4290747    1.4344419    1.4594810    1.5098882
 
:EIG00051:       1.5510651    1.5605977    1.6659306    1.6875447    1.8362688
       ********************************************************

:KPT   :      NUMBER OF K-POINTS:    84

------- case.scf2 --------
:GMA  : POTENTIAL AND CHARGE CUT-OFF  12.00 Ry**.5




:POS001: at.nr.  -1 position = 0.25000 0.75000 0.00000  multiplicity =  2

       lmmax  8
       lm=   0 0  2 0 -3 2  4 0  4 4 -5 2  6 0  6 4




:POS002: at.nr.  -2 position = 0.25000 0.75000 0.00000  multiplicity =  2

       lmmax 10
       lm=   0 0  1 0  2 0  3 0  4 0  4 4  5 0  5 4  6 0  6 4
:FER gutzwiller fermi energy   0.38830
:EORB          0.110489566
:SUM sum of gutz band energies       -101.603149232

:CHA001: total charge inside sphere   1 =    12.423253
:PCS001: partial charges sphere =  1 s,p,d,f,pz,pxy,,d-z2,d-xy,d-x2y2,d-xz,yz 
:QTL001: 0.2332 6.1913 5.9847 0.0115 2.0579 4.1335 0.0000 1.3416 1.2018 1.2112 2.2301 0.0000
:VZZ001: efg inside sphere   1 =     0.455293      up to r =   2.16000

:CHA002: total charge inside sphere   2 =    13.391036
:PCS002: partial charges sphere =  2 s,p,d,f,pz,pxy,,d-z2,d-xy,d-x2y2,d-xz,yz 
:QTL002: 1.3738 1.994010.0160 0.0060 0.6741 1.3199 0.0000 2.0031 2.0020 2.0024 4.0085 0.0000
:VZZ002: efg inside sphere   2 =    -2.328244      up to r =   2.05000

:CHA  : total charge inside unit cell =      60.000000

------- case.scfc --------

        1.ATOM      Fe                    5 CORE STATES
:1S 001: 1S                -512.228041922 Ry
:2S 001: 2S                 -59.157030659 Ry
:2PP001: 2P*                -50.959601346 Ry
:2P 001: 2P                 -50.044350605 Ry
:3S 001: 3S                  -5.924094693 Ry

        2.ATOM      Se                    7 CORE STATES
       CORE-FORCE in mRy/a.u. = |F|      Fx             Fy             Fz
:FCO002:   2.ATOM   1154.274935431610      0.000000000000      0.000000000000  -1154.274935431610

:1S 002: 1S                -916.480348409 Ry
:2S 002: 2S                -117.137964276 Ry
:2PP002: 2P*               -105.113536515 Ry
:2P 002: 2P                -102.050244963 Ry
:3S 002: 3S                 -14.866950142 Ry
:3PP002: 3P*                -10.754016486 Ry
:3P 002: 3P                 -10.321484902 Ry

------- case.scfm --------
:CINT001 Core Integral Atom   1   11.997241
:CINT002 Core Integral Atom   2   17.999417

       DENSITY AT NUCLEUS
        JATOM        VALENCE       SEMI-CORE          CORE           TOTAL
:RTO001:   1        5.163223        0.000000    14798.360307    14803.523530
:RTO002:   2       57.071067        0.000000    38924.842338    38981.913405
     
       CHARGES OF NEW CHARGE DENSITY
:NTO   : INTERSTITIAL CHARGE =     8.371546
:NPC   : PW Pseudocharge     =    13.309014
:NTO001: CHARGE SPHERE  1    =    24.420494
:NTO002: CHARGE SPHERE  2    =    31.390452

:NEC01: NUCLEAR AND ELECTRONIC CHARGE    120.00000   119.99344
     
       CHARGES OF OLD CHARGE DENSITY
:OTO   : INTERSTITIAL CHARGE =     8.465519
:OPC   : PW Pseudocharge     =    13.282179
:OTO001: CHARGE SPHERE  1    =    24.436645
:OTO002: CHARGE SPHERE  2    =    31.330596

:NEC02: NUCLEAR AND ELECTRONIC CHARGE    120.00000   120.00000
     
       CONVERGENCE TEST
:DTO001: DIFFERENCE IN SPHERE  1 =  0.0762393
:DTO002: DIFFERENCE IN SPHERE  2 =  0.0421370

:DIS  :  CHARGE DISTANCE       ( 0.0762393 for atom    1 spin 1)      0.0591881
 PW Mixed is          365
 
******************************************************
* MULTISECANT MIXING VER9 RELEASE 10.4.0              *
* Standard Mode with controls                        *
* Fixed density scale                                *
* Regularization       1.000E-04                     *
* Trust Upper Limit    5.000E+00                     *
* Max Number of Memory Steps    8                    *
******************************************************
 
:PWTMP   3.7368E+02  3.2249E+02  5.3028E+02
:PLANE:  PW TOTAL      3.6082 DISTAN   7.58E-02  2.10E+00 %
:CHARG:  CLM/ATOM    303.3328 DISTAN   8.09E-02  2.67E-02 %
 
Step History
        DMIX         DMIXT        Red     Pred      Trust     Lambda    MagRel    MagAbs     Beta
  1   3.5000E-02   3.5000E-02 -1.00E+00  1.00E+00 -1.00E+01  1.00E+00  3.50E-02  3.50E-02  1.00E+00
:INFO :  Note, Pratt in use
:TRUST:  Step 3.75E-02  Charge 7.50E-02 (e) CTO  2.50E-01 (e) PW  3.50E-01 (e)
:DIRM :  MEMORY  0/ 8 SCALE   1.000
Performing Pseudo Compensation
Final Pseudo Compensation Rescaling     9.99599E-01
:MIX  :   PRATT  REGULARIZATION:  1.00E-04 GREED: 0.02500                  
     
       CHARGES OF MIXED CHARGE DENSITY
:CTO   : INTERSTITIAL CHARGE =     8.463334
:CPC   : PW Pseudocharge     =    13.323078
:CTO001: CHARGE SPHERE  1    =    24.436241
:CTO002: CHARGE SPHERE  2    =    31.332092

:NEC03: NUCLEAR AND ELECTRONIC CHARGE    120.00000   120.00000

PW CHANGE     H    K    L      Current       Change    Residue
:PTO001:      0    0    0  4.10847146E-02  7.301E-05 -9.457E-05
:PTO002:      0    0   -1  8.75238700E-03 -1.902E-04 -1.104E-03
:PTO004:     -1    0   -1 -8.71604185E-02 -7.527E-04 -1.606E-03
:PTO005:      0    0   -2 -7.69750112E-03 -2.005E-04 -4.280E-04
:PTO006:     -1   -1    0 -2.16257962E-02 -4.431E-04 -5.865E-04
:PTO007:     -1   -1   -1  3.46605445E-02  3.567E-05  2.351E-04
:PTO008:     -1    0   -2  2.47118616E-02  3.223E-04  2.111E-04
:PTO009:     -1   -1   -2  2.27554802E-02  2.975E-04  8.099E-04
:PTO010:     -2    0    0 -1.30197498E-02 -1.845E-04 -3.858E-04
:PTO011:      0    0   -3  4.72666108E-03  6.984E-05  1.399E-04
:PTO012:     -2    0   -1  6.64392976E-03  1.254E-04 -6.383E-04
:PTO014:     -1    0   -3  4.31967763E-03  1.750E-04  2.403E-04

:ENE  : ********** TOTAL ENERGY IN Ry =       -14790.22287359

       TOTAL FORCE IN mRy/a.u. = |F|     Fx             Fy             Fz     with/without FOR in case.in2
:FOR001:   1.ATOM          0.000          0.000          0.000          0.000 partial forces
:FOR002:   2.ATOM         68.197          0.000          0.000         68.197 partial forces
       TOTAL FORCE WITH RESPECT TO GLOBAL CARTESIAN COORDINATES:
:FCA001:   1.ATOM                         0.000          0.000          0.000 partial forces
:FCA002:   2.ATOM                         0.000          0.000         68.197 partial forces
       TOTAL FORCE WITH RESPECT TO THE GLOBAL COORDINATE SYSTEM:
:FGL001:   1.ATOM                 0.000000000     0.000000000     0.000000000 partial forces
:FGL002:   2.ATOM                 0.000000000     0.000000000    68.196562143 partial forces

------- case.scf0 --------
 Flat Integration
 New Mode for Coulomb Integral
 Consistent 3/8+Simpson combinations
 Extension of core to zero
 LDM version in phi
 Fifth-order quadrature in outwin


            ---------
:ITE011: 11. ITERATION
            ---------

:NATO :    2 INDEPENDENT AND    4 TOTAL ATOMS IN UNITCELL
       SUBSTANCE: FeSe                                                        

       LATTICE                      = P   
:POT  : POTENTIAL OPTION EX_LDA EC_LDA VX_LDA VC_LDA
:LAT  : LATTICE CONSTANTS=  7.12881  7.12881 10.43450    1.571    1.571    1.571
:VOL  : UNIT CELL VOLUME =     530.28024
       MODE OF CALCULATION IS       = RELA
       NON-SPINPOLARIZED CALCULATION
:IFFT  : FFT-parameters:   60   60   80 Factor: 2.00


   CONVERGENCE PARAMETER FOR PSEUDOCHARGE: NCON=  9
   MAXIMAL VALUE OF RMT(JATOM)*ABSK(NKK) : RK  =25.91023


:VKCOUL :  VK-COUL convergence: 0.232E-06
       ATOMNUMBER=  1 Fe         VCOUL-ZERO =  0.28978E+00
:EFG001:                        EFG         =     0.74517   *10**21  V / m**2
                               V20  TOT/SRF=     0.64534    -0.00269
                               V22  TOT/SRF=     0.00000     0.00000
                               V22M TOT/SRF=     0.00000     0.00000
                               V21  TOT/SRF=     0.00000     0.00000
                               V21M TOT/SRF=     0.00000     0.00000

             -0.37259    0.00000    0.00000       -0.37259    0.00000    0.00000
              0.00000   -0.37259    0.00000        0.00000   -0.37259    0.00000
              0.00000    0.00000    0.74517        0.00000    0.00000    0.74517

         MAIN DIRECTIONS OF THE EFG   1.0000  0.0000  0.0000
                                      0.0000  1.0000  0.0000
                                      0.0000  0.0000  1.0000
:ANG001:  ANGLE WITH OLD X-AXIS =         0.0

:ETA001:                         ASYMM. ETA =     0.00000


       ATOMNUMBER=  2 Se         VCOUL-ZERO =  0.77501E-01
:EFG002:                        EFG         =    -3.09379   *10**21  V / m**2
                               V20  TOT/SRF=    -2.67930     0.00958
                               V22  TOT/SRF=     0.00000     0.00000
                               V22M TOT/SRF=     0.00000     0.00000
                               V21  TOT/SRF=     0.00000     0.00000
                               V21M TOT/SRF=     0.00000     0.00000

              1.54689    0.00000    0.00000        1.54689    0.00000    0.00000
              0.00000    1.54689    0.00000        0.00000    1.54689    0.00000
              0.00000    0.00000   -3.09379        0.00000    0.00000   -3.09379

         MAIN DIRECTIONS OF THE EFG   1.0000  0.0000  0.0000
                                      0.0000  1.0000  0.0000
                                      0.0000  0.0000  1.0000
:ANG002:  ANGLE WITH OLD X-AXIS =         0.0

:ETA002:                         ASYMM. ETA =     0.00000


     HELLMANN-FEYNMAN-FORCE IN mRy/a.u. = |F|  Fx       Fy             Fz
:FHF001:   1.ATOM      0.000000000000      0.000000000000      0.000000000000      0.000000000000

     HELLMANN-FEYNMAN-FORCE IN mRy/a.u. = |F|  Fx       Fy             Fz
:FHF002:   2.ATOM   1240.637777029377      0.000000000000      0.000000000000   1240.637777029377

:FIT001: LUSE= 13 SIGMA OF V-XC FIT FOR ATOM  1  0.1037742E-02
:FIT001: LUSE= 13 SIGMA OF V-XC FIT FOR ATOM  1  0.1037742E-02
:FIT002: LUSE= 13 SIGMA OF V-XC FIT FOR ATOM  2  0.2172861E-03
:FIT002: LUSE= 13 SIGMA OF V-XC FIT FOR ATOM  2  0.2172861E-03
:DEN  : DENSITY INTEGRAL  =         -6219.02148431   (Ry)
       ELS_POTENTIAL_AT Z=0 and Z=0.5:  -0.68575   0.55306
       ELS_POTENTIAL_AT Y=0 and Y=0.5:   0.00000   0.00000
:VZERO:v0,v0c,v0x  -1.48328  -0.68575  -0.79753 v5,v5c,v5x  -0.04184   0.55306  -0.59490
:VZERY:v0,v0c,v0x  -0.72386   0.00000  -0.72386 v5,v5c,v5x  -0.72386   0.00000  -0.72386
:VZERX:v0,v0c,v0x   0.09259   0.78855  -0.69596 v5,v5c,v5x   0.09259   0.78855  -0.69596

------- case.scf1 --------
:LMAX-WF:   10   Non-Spherical LMAX:   4

          ATOMIC SPHERE DEPENDENT PARAMETERS FOR ATOM  Fe        
:e__0001: OVERALL ENERGY PARAMETER IS    0.1896
          OVERALL BASIS SET ON ATOM IS LAPW
:E1_0001: E( 1)=    0.1896
             APW+lo
:E1_0001: E( 1)=   -3.4803   E(BOTTOM)=   -3.570   E(TOP)=   -3.391  1  2   151
             LOCAL ORBITAL
:E2_0001: E( 2)=    0.3135   E(BOTTOM)=   -0.037   E(TOP)=    0.664  0  1   135
             APW+lo
:E0_0001: E( 0)=    0.1896
             APW+lo

          ATOMIC SPHERE DEPENDENT PARAMETERS FOR ATOM  Se        
:e__0002: OVERALL ENERGY PARAMETER IS    0.1896
          OVERALL BASIS SET ON ATOM IS LAPW
:E2_0002: E( 2)=    0.1896
             APW+lo
:E2_0002: E( 2)=   -3.1733   E(BOTTOM)=   -3.217   E(TOP)=   -3.130  0  1   139
             LOCAL ORBITAL
:E0_0002: E( 0)=    0.5896
             APW+lo
:E0_0002: E( 0)=   -1.0200   E(BOTTOM)=   -1.623   E(TOP)= -200.000  3 -1   183
             LOCAL ORBITAL
:E1_0002: E( 1)=    0.1896
             APW+lo

       K=   0.04545   0.04545   0.07143            1
:RKM  : MATRIX SIZE   582LOs:  54  RKM= 7.97  WEIGHT= 8.00  PGR:    
       EIGENVALUES ARE:
:EIG00001:      -3.4667303   -3.4665153   -3.4581690   -3.4580001   -3.4579538
:EIG00006:      -3.4561162   -3.1634512   -3.1633941   -3.1631693   -3.1631207
:EIG00011:      -3.1625520   -3.1625464   -3.1625278   -3.1625203   -3.1620219
:EIG00016:      -3.1619898   -0.6572114   -0.5616453   -0.0280124    0.1420204
:EIG00021:       0.1557797    0.1589677    0.1880573    0.1914858    0.2276797
:EIG00026:       0.3176064    0.3475792    0.3477646    0.3931480    0.4071123
:EIG00031:       0.4077883    0.4511826    0.5043302    0.5170060    0.5756046
:EIG00036:       0.7726703    0.8029633    0.8633596    0.8793216    0.9344135
:EIG00041:       1.1843273    1.2907675    1.3216362    1.3388997    1.3507913
:EIG00046:       1.4100603    1.4292817    1.4348704    1.4597814    1.5101788
 
:EIG00051:       1.5512780    1.5608473    1.6661238    1.6875262    1.8363116
       ********************************************************

:KPT   :      NUMBER OF K-POINTS:    84

------- case.scf2 --------
:GMA  : POTENTIAL AND CHARGE CUT-OFF  12.00 Ry**.5




:POS001: at.nr.  -1 position = 0.25000 0.75000 0.00000  multiplicity =  2

       lmmax  8
       lm=   0 0  2 0 -3 2  4 0  4 4 -5 2  6 0  6 4




:POS002: at.nr.  -2 position = 0.25000 0.75000 0.00000  multiplicity =  2

       lmmax 10
       lm=   0 0  1 0  2 0  3 0  4 0  4 4  5 0  5 4  6 0  6 4
:FER gutzwiller fermi energy   0.38890
:EORB          0.099385107
:SUM sum of gutz band energies       -101.561489634

:CHA001: total charge inside sphere   1 =    12.423373
:PCS001: partial charges sphere =  1 s,p,d,f,pz,pxy,,d-z2,d-xy,d-x2y2,d-xz,yz 
:QTL001: 0.2338 6.1919 5.9836 0.0115 2.0580 4.1340 0.0000 1.3414 1.2027 1.2105 2.2290 0.0000
:VZZ001: efg inside sphere   1 =     0.489352      up to r =   2.16000

:CHA002: total charge inside sphere   2 =    13.388831
:PCS002: partial charges sphere =  2 s,p,d,f,pz,pxy,,d-z2,d-xy,d-x2y2,d-xz,yz 
:QTL002: 1.3737 1.991810.0161 0.0060 0.6734 1.3184 0.0000 2.0031 2.0020 2.0024 4.0085 0.0000
:VZZ002: efg inside sphere   2 =    -2.330954      up to r =   2.05000

:CHA  : total charge inside unit cell =      60.000000

------- case.scfc --------

        1.ATOM      Fe                    5 CORE STATES
:1S 001: 1S                -512.227153231 Ry
:2S 001: 2S                 -59.156261922 Ry
:2PP001: 2P*                -50.958802024 Ry
:2P 001: 2P                 -50.043554214 Ry
:3S 001: 3S                  -5.924213817 Ry

        2.ATOM      Se                    7 CORE STATES
       CORE-FORCE in mRy/a.u. = |F|      Fx             Fy             Fz
:FCO002:   2.ATOM   1162.450551222644      0.000000000000      0.000000000000  -1162.450551222644

:1S 002: 1S                -916.478458566 Ry
:2S 002: 2S                -117.136209622 Ry
:2PP002: 2P*               -105.111760100 Ry
:2P 002: 2P                -102.048471537 Ry
:3S 002: 3S                 -14.865408243 Ry
:3PP002: 3P*                -10.752478054 Ry
:3P 002: 3P                 -10.319952005 Ry

------- case.scfm --------
:CINT001 Core Integral Atom   1   11.997239
:CINT002 Core Integral Atom   2   17.999417

       DENSITY AT NUCLEUS
        JATOM        VALENCE       SEMI-CORE          CORE           TOTAL
:RTO001:   1        5.176915        0.000000    14798.341974    14803.518889
:RTO002:   2       57.059314        0.000000    38924.833318    38981.892632
     
       CHARGES OF NEW CHARGE DENSITY
:NTO   : INTERSTITIAL CHARGE =     8.375909
:NPC   : PW Pseudocharge     =    13.308309
:NTO001: CHARGE SPHERE  1    =    24.420612
:NTO002: CHARGE SPHERE  2    =    31.388248

:NEC01: NUCLEAR AND ELECTRONIC CHARGE    120.00000   119.99363
     
       CHARGES OF OLD CHARGE DENSITY
:OTO   : INTERSTITIAL CHARGE =     8.463334
:OPC   : PW Pseudocharge     =    13.323078
:OTO001: CHARGE SPHERE  1    =    24.436241
:OTO002: CHARGE SPHERE  2    =    31.332092

:NEC02: NUCLEAR AND ELECTRONIC CHARGE    120.00000   120.00000
     
       CONVERGENCE TEST
:DTO001: DIFFERENCE IN SPHERE  1 =  0.0706162
:DTO002: DIFFERENCE IN SPHERE  2 =  0.0392591

:DIS  :  CHARGE DISTANCE       ( 0.0706162 for atom    1 spin 1)      0.0549377
 PW Mixed is          365
 
******************************************************
* MULTISECANT MIXING VER9 RELEASE 10.4.0              *
* Slow Mode, cautious                                *
* Fixed density scale                                *
* Regularization       1.000E-04                     *
* Step Trust Radius    0.75000                       *
* Trust Upper Limit    2.000E+00                     *
* Max Number of Memory Steps   12                    *
******************************************************
 
:PWTMP   3.7368E+02  3.2249E+02  5.3028E+02
:PLANE:  PW TOTAL      3.6274 DISTAN   5.50E-02  1.52E+00 %
:CHARG:  CLM/ATOM    303.3331 DISTAN   7.60E-02  2.51E-02 %
 
Step History
        DMIX         DMIXT        Red     Pred      Trust     Lambda    MagRel    MagAbs     Beta
  1   3.5000E-02   3.5000E-02 -1.00E+00  1.00E+00 -1.00E+01  1.00E+00  3.50E-02  3.50E-02  1.00E+00
  2   2.5000E-02   2.5000E-02 -1.00E+00  1.00E+00 -1.00E+01  1.00E+00  2.50E-02  4.47E-03  1.00E+00
:JACOBIANS    4.285E-01   1.577E-02
  
:NORMS:  1/Froebius, Min, Max, Used   0.8181E+00  0.8181E+00  0.8881E+00  0.8181E+00
:INFO :  Number of Memory Steps    1 Skipping    0
:PREDicted Charge, CTotal, PW Trust    4.143E-03   6.050E-03   6.518E-02
:PREDicted DMix, Beta, BLim   1.0000E-02  2.7687E+00  4.9730E-01

Eigenvalues, unscaled except for SY+YY
   #     SY Real        SY Imag          SS             YY         SY+YY Real      SY+YY Imag
   1   8.881353E-01   0.000000E+00   8.181168E-01   1.000000E+00   1.888135E+00   0.000000E+00
 
:BLIM :  VZERO Control Off
:TRUST:  Step 4.49E-01  Charge 7.50E-02 (e) CTO  2.50E-01 (e) PW  3.50E-01 (e)
:DIRM :  MEMORY  1/12 SCALE   1.000 RED  0.91 PRED  1.00 NEXT  0.92 
:TRAVE:  Charge 3.64E-03 (e) CTO  5.26E-03 (e) PW  3.98E-02 (e)
:DIRP :  |MSR1|= 5.585E-02 |PRATT|= 5.503E-02 ANGLE=  67.8 DEGREES
:DIRQ :  |MSR1|= 9.852E-03 |PRATT|= 1.521E-01 ANGLE=   0.2 DEGREES
:DIRT :  |MSR1|= 5.671E-02 |PRATT|= 1.617E-01 ANGLE=  73.1 DEGREES
:MIX  :   MSR1   REGULARIZATION:  1.00E-04 GREED: 0.02000  Newton 1.00  0.3506                
     
       CHARGES OF MIXED CHARGE DENSITY
:CTO   : INTERSTITIAL CHARGE =     8.458073
:CPC   : PW Pseudocharge     =    13.393840
:CTO001: CHARGE SPHERE  1    =    24.435233
:CTO002: CHARGE SPHERE  2    =    31.335731

:NEC03: NUCLEAR AND ELECTRONIC CHARGE    120.00000   120.00000

PW CHANGE     H    K    L      Current       Change    Residue
:PTO001:      0    0    0  4.12082347E-02  1.235E-04 -1.616E-04
:PTO002:      0    0   -1  8.40719405E-03 -3.452E-04 -8.630E-04
:PTO004:     -1    0   -1 -8.84791589E-02 -1.319E-03 -8.005E-04
:PTO005:      0    0   -2 -8.04886588E-03 -3.514E-04 -2.149E-04
:PTO006:     -1   -1    0 -2.23956937E-02 -7.699E-04 -1.254E-04
:PTO007:     -1   -1   -1  3.47247676E-02  6.422E-05  1.707E-04
:PTO008:     -1    0   -2  2.52663498E-02  5.545E-04 -1.474E-04
:PTO009:     -1   -1   -2  2.32805670E-02  5.251E-04  4.966E-04
:PTO010:     -2    0    0 -1.33426120E-02 -3.229E-04 -1.852E-04
:PTO011:      0    0   -3  4.84879664E-03  1.221E-04  6.415E-05
:PTO012:     -2    0   -1  6.84658483E-03  2.027E-04 -7.540E-04
:PTO014:     -1    0   -3  4.62438439E-03  3.047E-04  6.707E-05

:ENE  : ********** TOTAL ENERGY IN Ry =       -14790.22239320

       TOTAL FORCE IN mRy/a.u. = |F|     Fx             Fy             Fz     with/without FOR in case.in2
:FOR001:   1.ATOM          0.000          0.000          0.000          0.000 partial forces
:FOR002:   2.ATOM         78.187          0.000          0.000         78.187 partial forces
       TOTAL FORCE WITH RESPECT TO GLOBAL CARTESIAN COORDINATES:
:FCA001:   1.ATOM                         0.000          0.000          0.000 partial forces
:FCA002:   2.ATOM                         0.000          0.000         78.187 partial forces
       TOTAL FORCE WITH RESPECT TO THE GLOBAL COORDINATE SYSTEM:
:FGL001:   1.ATOM                 0.000000000     0.000000000     0.000000000 partial forces
:FGL002:   2.ATOM                 0.000000000     0.000000000    78.187225807 partial forces

------- case.scf0 --------
 Flat Integration
 New Mode for Coulomb Integral
 Consistent 3/8+Simpson combinations
 Extension of core to zero
 LDM version in phi
 Fifth-order quadrature in outwin


            ---------
:ITE012: 12. ITERATION
            ---------

:NATO :    2 INDEPENDENT AND    4 TOTAL ATOMS IN UNITCELL
       SUBSTANCE: FeSe                                                        

       LATTICE                      = P   
:POT  : POTENTIAL OPTION EX_LDA EC_LDA VX_LDA VC_LDA
:LAT  : LATTICE CONSTANTS=  7.12881  7.12881 10.43450    1.571    1.571    1.571
:VOL  : UNIT CELL VOLUME =     530.28024
       MODE OF CALCULATION IS       = RELA
       NON-SPINPOLARIZED CALCULATION
:IFFT  : FFT-parameters:   60   60   80 Factor: 2.00


   CONVERGENCE PARAMETER FOR PSEUDOCHARGE: NCON=  9
   MAXIMAL VALUE OF RMT(JATOM)*ABSK(NKK) : RK  =25.91023


:VKCOUL :  VK-COUL convergence: 0.234E-06
       ATOMNUMBER=  1 Fe         VCOUL-ZERO =  0.28693E+00
:EFG001:                        EFG         =     0.72318   *10**21  V / m**2
                               V20  TOT/SRF=     0.62629    -0.00656
                               V22  TOT/SRF=     0.00000     0.00000
                               V22M TOT/SRF=     0.00000     0.00000
                               V21  TOT/SRF=     0.00000     0.00000
                               V21M TOT/SRF=     0.00000     0.00000

             -0.36159    0.00000    0.00000       -0.36159    0.00000    0.00000
              0.00000   -0.36159    0.00000        0.00000   -0.36159    0.00000
              0.00000    0.00000    0.72318        0.00000    0.00000    0.72318

         MAIN DIRECTIONS OF THE EFG   1.0000  0.0000  0.0000
                                      0.0000  1.0000  0.0000
                                      0.0000  0.0000  1.0000
:ANG001:  ANGLE WITH OLD X-AXIS =         0.0

:ETA001:                         ASYMM. ETA =     0.00000


       ATOMNUMBER=  2 Se         VCOUL-ZERO =  0.79248E-01
:EFG002:                        EFG         =    -3.04089   *10**21  V / m**2
                               V20  TOT/SRF=    -2.63349     0.01089
                               V22  TOT/SRF=     0.00000     0.00000
                               V22M TOT/SRF=     0.00000     0.00000
                               V21  TOT/SRF=     0.00000     0.00000
                               V21M TOT/SRF=     0.00000     0.00000

              1.52044    0.00000    0.00000        1.52044    0.00000    0.00000
              0.00000    1.52044    0.00000        0.00000    1.52044    0.00000
              0.00000    0.00000   -3.04089        0.00000    0.00000   -3.04089

         MAIN DIRECTIONS OF THE EFG   1.0000  0.0000  0.0000
                                      0.0000  1.0000  0.0000
                                      0.0000  0.0000  1.0000
:ANG002:  ANGLE WITH OLD X-AXIS =         0.0

:ETA002:                         ASYMM. ETA =     0.00000


     HELLMANN-FEYNMAN-FORCE IN mRy/a.u. = |F|  Fx       Fy             Fz
:FHF001:   1.ATOM      0.000000000000      0.000000000000      0.000000000000      0.000000000000

     HELLMANN-FEYNMAN-FORCE IN mRy/a.u. = |F|  Fx       Fy             Fz
:FHF002:   2.ATOM   1282.895105385546      0.000000000000      0.000000000000   1282.895105385546

:FIT001: LUSE= 13 SIGMA OF V-XC FIT FOR ATOM  1  0.1036378E-02
:FIT001: LUSE= 13 SIGMA OF V-XC FIT FOR ATOM  1  0.1036378E-02
:FIT002: LUSE= 13 SIGMA OF V-XC FIT FOR ATOM  2  0.2149756E-03
:FIT002: LUSE= 13 SIGMA OF V-XC FIT FOR ATOM  2  0.2149756E-03
:DEN  : DENSITY INTEGRAL  =         -6219.26661505   (Ry)
       ELS_POTENTIAL_AT Z=0 and Z=0.5:  -0.68369   0.55650
       ELS_POTENTIAL_AT Y=0 and Y=0.5:   0.00000   0.00000
:VZERO:v0,v0c,v0x  -1.47939  -0.68369  -0.79571 v5,v5c,v5x  -0.03871   0.55650  -0.59521
:VZERY:v0,v0c,v0x  -0.72391   0.00000  -0.72391 v5,v5c,v5x  -0.72391   0.00000  -0.72391
:VZERX:v0,v0c,v0x   0.09331   0.78866  -0.69535 v5,v5c,v5x   0.09331   0.78866  -0.69535

------- case.scf1 --------
:LMAX-WF:   10   Non-Spherical LMAX:   4

          ATOMIC SPHERE DEPENDENT PARAMETERS FOR ATOM  Fe        
:e__0001: OVERALL ENERGY PARAMETER IS    0.1896
          OVERALL BASIS SET ON ATOM IS LAPW
:E1_0001: E( 1)=    0.1896
             APW+lo
:E1_0001: E( 1)=   -3.4808   E(BOTTOM)=   -3.571   E(TOP)=   -3.391  1  2   149
             LOCAL ORBITAL
:E2_0001: E( 2)=    0.3126   E(BOTTOM)=   -0.038   E(TOP)=    0.663  0  1   138
             APW+lo
:E0_0001: E( 0)=    0.1896
             APW+lo

          ATOMIC SPHERE DEPENDENT PARAMETERS FOR ATOM  Se        
:e__0002: OVERALL ENERGY PARAMETER IS    0.1896
          OVERALL BASIS SET ON ATOM IS LAPW
:E2_0002: E( 2)=    0.1896
             APW+lo
:E2_0002: E( 2)=   -3.1698   E(BOTTOM)=   -3.213   E(TOP)=   -3.126  0  1   137
             LOCAL ORBITAL
:E0_0002: E( 0)=    0.5896
             APW+lo
:E0_0002: E( 0)=   -1.0200   E(BOTTOM)=   -1.621   E(TOP)= -200.000  3 -1   183
             LOCAL ORBITAL
:E1_0002: E( 1)=    0.1896
             APW+lo

       K=   0.04545   0.04545   0.07143            1
:RKM  : MATRIX SIZE   582LOs:  54  RKM= 7.97  WEIGHT= 8.00  PGR:    
       EIGENVALUES ARE:
:EIG00001:      -3.4673282   -3.4671128   -3.4587517   -3.4585362   -3.4583994
:EIG00006:      -3.4565119   -3.1598493   -3.1597928   -3.1595663   -3.1595175
:EIG00011:      -3.1589983   -3.1589927   -3.1589740   -3.1589664   -3.1584817
:EIG00016:      -3.1584494   -0.6556951   -0.5600954   -0.0279203    0.1416548
:EIG00021:       0.1557506    0.1591070    0.1889001    0.1924203    0.2263782
:EIG00026:       0.3173100    0.3470750    0.3481911    0.3926014    0.4061112
:EIG00031:       0.4077028    0.4503974    0.5050043    0.5178703    0.5759190
:EIG00036:       0.7726468    0.8035871    0.8629626    0.8788157    0.9347667
:EIG00041:       1.1854314    1.2916475    1.3219468    1.3395407    1.3514960
:EIG00046:       1.4100276    1.4297020    1.4358393    1.4604224    1.5108047
 
:EIG00051:       1.5517162    1.5613808    1.6665032    1.6874051    1.8363327
       ********************************************************

:KPT   :      NUMBER OF K-POINTS:    84

------- case.scf2 --------
:GMA  : POTENTIAL AND CHARGE CUT-OFF  12.00 Ry**.5




:POS001: at.nr.  -1 position = 0.25000 0.75000 0.00000  multiplicity =  2

       lmmax  8
       lm=   0 0  2 0 -3 2  4 0  4 4 -5 2  6 0  6 4




:POS002: at.nr.  -2 position = 0.25000 0.75000 0.00000  multiplicity =  2

       lmmax 10
       lm=   0 0  1 0  2 0  3 0  4 0  4 4  5 0  5 4  6 0  6 4
:FER gutzwiller fermi energy   0.38991
:EORB          0.076406382
:SUM sum of gutz band energies       -101.470495341

:CHA001: total charge inside sphere   1 =    12.425420
:PCS001: partial charges sphere =  1 s,p,d,f,pz,pxy,,d-z2,d-xy,d-x2y2,d-xz,yz 
:QTL001: 0.2351 6.1934 5.9829 0.0116 2.0583 4.1351 0.0000 1.3410 1.2049 1.2093 2.2276 0.0000
:VZZ001: efg inside sphere   1 =     0.559981      up to r =   2.16000

:CHA002: total charge inside sphere   2 =    13.382547
:PCS002: partial charges sphere =  2 s,p,d,f,pz,pxy,,d-z2,d-xy,d-x2y2,d-xz,yz 
:QTL002: 1.3733 1.985710.0164 0.0060 0.6714 1.3143 0.0000 2.0032 2.0020 2.0024 4.0087 0.0000
:VZZ002: efg inside sphere   2 =    -2.333773      up to r =   2.05000

:CHA  : total charge inside unit cell =      60.000000

------- case.scfc --------

        1.ATOM      Fe                    5 CORE STATES
:1S 001: 1S                -512.225149928 Ry
:2S 001: 2S                 -59.154534976 Ry
:2PP001: 2P*                -50.957003243 Ry
:2P 001: 2P                 -50.041762331 Ry
:3S 001: 3S                  -5.924610363 Ry

        2.ATOM      Se                    7 CORE STATES
       CORE-FORCE in mRy/a.u. = |F|      Fx             Fy             Fz
:FCO002:   2.ATOM   1181.153776162411      0.000000000000      0.000000000000  -1181.153776162411

:1S 002: 1S                -916.473993235 Ry
:2S 002: 2S                -117.132065804 Ry
:2PP002: 2P*               -105.107564784 Ry
:2P 002: 2P                -102.044283294 Ry
:3S 002: 3S                 -14.861761747 Ry
:3PP002: 3P*                -10.748839893 Ry
:3P 002: 3P                 -10.316326873 Ry

------- case.scfm --------
:CINT001 Core Integral Atom   1   11.997236
:CINT002 Core Integral Atom   2   17.999416

       DENSITY AT NUCLEUS
        JATOM        VALENCE       SEMI-CORE          CORE           TOTAL
:RTO001:   1        5.209292        0.000000    14798.298219    14803.507511
:RTO002:   2       57.031322        0.000000    38924.812065    38981.843387
     
       CHARGES OF NEW CHARGE DENSITY
:NTO   : INTERSTITIAL CHARGE =     8.384289
:NPC   : PW Pseudocharge     =    13.305018
:NTO001: CHARGE SPHERE  1    =    24.422656
:NTO002: CHARGE SPHERE  2    =    31.381963

:NEC01: NUCLEAR AND ELECTRONIC CHARGE    120.00000   119.99353
     
       CHARGES OF OLD CHARGE DENSITY
:OTO   : INTERSTITIAL CHARGE =     8.458073
:OPC   : PW Pseudocharge     =    13.393840
:OTO001: CHARGE SPHERE  1    =    24.435233
:OTO002: CHARGE SPHERE  2    =    31.335731

:NEC02: NUCLEAR AND ELECTRONIC CHARGE    120.00000   120.00000
     
       CONVERGENCE TEST
:DTO001: DIFFERENCE IN SPHERE  1 =  0.0588216
:DTO002: DIFFERENCE IN SPHERE  2 =  0.0317200

:DIS  :  CHARGE DISTANCE       ( 0.0588216 for atom    1 spin 1)      0.0452708
 PW Mixed is          365
 
******************************************************
* MULTISECANT MIXING VER9 RELEASE 10.4.0              *
* Slow Mode, cautious                                *
* Fixed density scale                                *
* Regularization       1.000E-04                     *
* Step Trust Radius    0.75000                       *
* Trust Upper Limit    2.000E+00                     *
* Max Number of Memory Steps   12                    *
******************************************************
 
:PWTMP   3.7368E+02  3.2249E+02  5.3028E+02
:PLANE:  PW TOTAL      3.6611 DISTAN   6.17E-02  1.69E+00 %
:CHARG:  CLM/ATOM    303.3338 DISTAN   6.51E-02  2.15E-02 %
 
Step History
        DMIX         DMIXT        Red     Pred      Trust     Lambda    MagRel    MagAbs     Beta
  1   3.5000E-02   3.5000E-02 -1.00E+00  1.00E+00 -1.00E+01  1.00E+00  3.50E-02  3.50E-02  1.00E+00
  2   2.5000E-02   2.5000E-02  9.05E-01  1.00E+00 -1.00E+01  1.00E+00  2.50E-02  4.47E-03  1.00E+00
  3   2.0000E-02   2.0000E-02 -1.00E+00  9.21E-01  4.49E-01  1.00E+00  3.51E-01  5.67E-02  1.00E+00
:JACOBIANS    7.218E-01   1.587E-01
  
:NORMS:  1/Froebius, Min, Max, Used   0.8682E+00  0.6999E+00  0.1002E+01  0.8683E+00
:INFO :  Number of Memory Steps    2 Skipping    0
:INFO :  SLambda=    0.3891455838  Max    0.3891455838
:PREDicted Charge, CTotal, PW Trust    2.165E-02   3.048E-02   3.369E-02
:PREDicted DMix, Beta, BLim   1.7422E-01  6.5885E-02  3.8930E-01

Eigenvalues, unscaled except for SY+YY
   #     SY Real        SY Imag          SS             YY         SY+YY Real      SY+YY Imag
   1   1.695791E+00   0.000000E+00   1.507502E+00   1.999543E+00   2.659441E+00   0.000000E+00
   2   2.150651E-04   0.000000E+00   1.335417E-04   4.571767E-04   5.517557E-04   0.000000E+00
 
:INFO :  Singular value  2.659E+00 Weight  1.000E+00 Projection -1.358E-04
:INFO :  Singular value  5.518E-04 Weight  8.839E-01 Projection -5.325E+00
:RANK :  ACTIVE   1.88/2  =  94.20 % ; YY RANK   1.84/2  =  91.97 %
 
:DLIM :  Beta Active  8.000E-01
:BLIM :  VZERO Control Off
:TRUST:  Step 5.04E-01  Charge 7.50E-02 (e) CTO  2.50E-01 (e) PW  3.50E-01 (e)
:DIRM :  MEMORY  2/12 SCALE   1.000 RED  0.89 PRED  0.92 NEXT  0.58 BETA  0.80
:TRAVE:  Charge 8.48E-03 (e) CTO  1.32E-02 (e) PW  4.93E-02 (e)
:DIRP :  |MSR1|= 5.474E-02 |PRATT|= 6.172E-02 ANGLE=  31.3 DEGREES
:DIRQ :  |MSR1|= 4.097E-02 |PRATT|= 1.302E-01 ANGLE=   3.0 DEGREES
:DIRT :  |MSR1|= 6.837E-02 |PRATT|= 1.441E-01 ANGLE=  33.5 DEGREES
:MIX  :   MSD1   REGULARIZATION:  2.00E-04 GREED: 0.05000  Newton 1.00  0.4745                
     
       CHARGES OF MIXED CHARGE DENSITY
:CTO   : INTERSTITIAL CHARGE =     8.436951
:CPC   : PW Pseudocharge     =    13.318229
:CTO001: CHARGE SPHERE  1    =    24.432467
:CTO002: CHARGE SPHERE  2    =    31.349058

:NEC03: NUCLEAR AND ELECTRONIC CHARGE    120.00000   120.00000

PW CHANGE     H    K    L      Current       Change    Residue
:PTO001:      0    0    0  4.10258155E-02 -1.824E-04 -2.751E-04
:PTO002:      0    0   -1  8.50840928E-03  1.012E-04 -3.889E-04
:PTO004:     -1    0   -1 -8.73563609E-02  1.123E-03  6.583E-04
:PTO005:      0    0   -2 -7.75145869E-03  2.974E-04  1.709E-04
:PTO006:     -1   -1    0 -2.16258407E-02  7.699E-04  6.989E-04
:PTO007:     -1   -1   -1  3.46917210E-02 -3.305E-05  4.206E-05
:PTO008:     -1    0   -2  2.45970123E-02 -6.693E-04 -7.947E-04
:PTO009:     -1   -1   -2  2.29121398E-02 -3.684E-04 -6.592E-05
:PTO010:     -2    0    0 -1.30637276E-02  2.789E-04  1.758E-04
:PTO011:      0    0   -3  4.74026741E-03 -1.085E-04 -7.295E-05
:PTO012:     -2    0   -1  6.37095269E-03 -4.756E-04 -9.356E-04
:PTO014:     -1    0   -3  4.34045186E-03 -2.839E-04 -2.349E-04

:ENE  : ********** TOTAL ENERGY IN Ry =       -14790.22177988

       TOTAL FORCE IN mRy/a.u. = |F|     Fx             Fy             Fz     with/without FOR in case.in2
:FOR001:   1.ATOM          0.000          0.000          0.000          0.000 partial forces
:FOR002:   2.ATOM        101.741          0.000          0.000        101.741 partial forces
       TOTAL FORCE WITH RESPECT TO GLOBAL CARTESIAN COORDINATES:
:FCA001:   1.ATOM                         0.000          0.000          0.000 partial forces
:FCA002:   2.ATOM                         0.000          0.000        101.741 partial forces
       TOTAL FORCE WITH RESPECT TO THE GLOBAL COORDINATE SYSTEM:
:FGL001:   1.ATOM                 0.000000000     0.000000000     0.000000000 partial forces
:FGL002:   2.ATOM                 0.000000000     0.000000000   101.741329223 partial forces

------- case.scf0 --------
 Flat Integration
 New Mode for Coulomb Integral
 Consistent 3/8+Simpson combinations
 Extension of core to zero
 LDM version in phi
 Fifth-order quadrature in outwin


            ---------
:ITE013: 13. ITERATION
            ---------

:NATO :    2 INDEPENDENT AND    4 TOTAL ATOMS IN UNITCELL
       SUBSTANCE: FeSe                                                        

       LATTICE                      = P   
:POT  : POTENTIAL OPTION EX_LDA EC_LDA VX_LDA VC_LDA
:LAT  : LATTICE CONSTANTS=  7.12881  7.12881 10.43450    1.571    1.571    1.571
:VOL  : UNIT CELL VOLUME =     530.28024
       MODE OF CALCULATION IS       = RELA
       NON-SPINPOLARIZED CALCULATION
:IFFT  : FFT-parameters:   60   60   80 Factor: 2.00


   CONVERGENCE PARAMETER FOR PSEUDOCHARGE: NCON=  9
   MAXIMAL VALUE OF RMT(JATOM)*ABSK(NKK) : RK  =25.91023


:VKCOUL :  VK-COUL convergence: 0.231E-06
       ATOMNUMBER=  1 Fe         VCOUL-ZERO =  0.27589E+00
:EFG001:                        EFG         =     0.65635   *10**21  V / m**2
                               V20  TOT/SRF=     0.56842    -0.02028
                               V22  TOT/SRF=     0.00000     0.00000
                               V22M TOT/SRF=     0.00000     0.00000
                               V21  TOT/SRF=     0.00000     0.00000
                               V21M TOT/SRF=     0.00000     0.00000

             -0.32817    0.00000    0.00000       -0.32817    0.00000    0.00000
              0.00000   -0.32817    0.00000        0.00000   -0.32817    0.00000
              0.00000    0.00000    0.65635        0.00000    0.00000    0.65635

         MAIN DIRECTIONS OF THE EFG   1.0000  0.0000  0.0000
                                      0.0000  1.0000  0.0000
                                      0.0000  0.0000  1.0000
:ANG001:  ANGLE WITH OLD X-AXIS =         0.0

:ETA001:                         ASYMM. ETA =     0.00000


       ATOMNUMBER=  2 Se         VCOUL-ZERO =  0.84595E-01
:EFG002:                        EFG         =    -2.79164   *10**21  V / m**2
                               V20  TOT/SRF=    -2.41763     0.01549
                               V22  TOT/SRF=     0.00000     0.00000
                               V22M TOT/SRF=     0.00000     0.00000
                               V21  TOT/SRF=     0.00000     0.00000
                               V21M TOT/SRF=     0.00000     0.00000

              1.39582    0.00000    0.00000        1.39582    0.00000    0.00000
              0.00000    1.39582    0.00000        0.00000    1.39582    0.00000
              0.00000    0.00000   -2.79164        0.00000    0.00000   -2.79164

         MAIN DIRECTIONS OF THE EFG   1.0000  0.0000  0.0000
                                      0.0000  1.0000  0.0000
                                      0.0000  0.0000  1.0000
:ANG002:  ANGLE WITH OLD X-AXIS =         0.0

:ETA002:                         ASYMM. ETA =     0.00000


     HELLMANN-FEYNMAN-FORCE IN mRy/a.u. = |F|  Fx       Fy             Fz
:FHF001:   1.ATOM      0.000000000000      0.000000000000      0.000000000000      0.000000000000

     HELLMANN-FEYNMAN-FORCE IN mRy/a.u. = |F|  Fx       Fy             Fz
:FHF002:   2.ATOM   1388.770978466968      0.000000000000      0.000000000000   1388.770978466968

:FIT001: LUSE= 13 SIGMA OF V-XC FIT FOR ATOM  1  0.1028317E-02
:FIT001: LUSE= 13 SIGMA OF V-XC FIT FOR ATOM  1  0.1028317E-02
:FIT002: LUSE= 13 SIGMA OF V-XC FIT FOR ATOM  2  0.2052227E-03
:FIT002: LUSE= 13 SIGMA OF V-XC FIT FOR ATOM  2  0.2052227E-03
:DEN  : DENSITY INTEGRAL  =         -6220.10600646   (Ry)
       ELS_POTENTIAL_AT Z=0 and Z=0.5:  -0.70201   0.56748
       ELS_POTENTIAL_AT Y=0 and Y=0.5:   0.00000   0.00000
:VZERO:v0,v0c,v0x  -1.49744  -0.70201  -0.79544 v5,v5c,v5x  -0.02892   0.56748  -0.59640
:VZERY:v0,v0c,v0x  -0.72346   0.00000  -0.72346 v5,v5c,v5x  -0.72346   0.00000  -0.72346
:VZERX:v0,v0c,v0x   0.09150   0.78687  -0.69536 v5,v5c,v5x   0.09150   0.78687  -0.69536

------- case.scf1 --------
:LMAX-WF:   10   Non-Spherical LMAX:   4

          ATOMIC SPHERE DEPENDENT PARAMETERS FOR ATOM  Fe        
:e__0001: OVERALL ENERGY PARAMETER IS    0.1896
          OVERALL BASIS SET ON ATOM IS LAPW
:E1_0001: E( 1)=    0.1896
             APW+lo
:E1_0001: E( 1)=   -3.4819   E(BOTTOM)=   -3.572   E(TOP)=   -3.392  1  2   146
             LOCAL ORBITAL
:E2_0001: E( 2)=    0.3100   E(BOTTOM)=   -0.042   E(TOP)=    0.662  0  1   135
             APW+lo
:E0_0001: E( 0)=    0.1896
             APW+lo

          ATOMIC SPHERE DEPENDENT PARAMETERS FOR ATOM  Se        
:e__0002: OVERALL ENERGY PARAMETER IS    0.1896
          OVERALL BASIS SET ON ATOM IS LAPW
:E2_0002: E( 2)=    0.1896
             APW+lo
:E2_0002: E( 2)=   -3.1583   E(BOTTOM)=   -3.202   E(TOP)=   -3.115  0  1   138
             LOCAL ORBITAL
:E0_0002: E( 0)=    0.5896
             APW+lo
:E0_0002: E( 0)=   -1.0200   E(BOTTOM)=   -1.614   E(TOP)= -200.000  3 -1   179
             LOCAL ORBITAL
:E1_0002: E( 1)=    0.1896
             APW+lo

       K=   0.04545   0.04545   0.07143            1
:RKM  : MATRIX SIZE   582LOs:  54  RKM= 7.97  WEIGHT= 8.00  PGR:    
       EIGENVALUES ARE:
:EIG00001:      -3.4684680   -3.4682509   -3.4598266   -3.4596094   -3.4590100
:EIG00006:      -3.4571074   -3.1482852   -3.1482303   -3.1479964   -3.1479471
:EIG00011:      -3.1476168   -3.1476110   -3.1475920   -3.1475842   -3.1471522
:EIG00016:      -3.1471195   -0.6512647   -0.5554566   -0.0284225    0.1399290
:EIG00021:       0.1553257    0.1591564    0.1912105    0.1949851    0.2222022
:EIG00026:       0.3165062    0.3456119    0.3492834    0.3910729    0.4032673
:EIG00031:       0.4075752    0.4484523    0.5071575    0.5208032    0.5763738
:EIG00036:       0.7721683    0.8050880    0.8608353    0.8763086    0.9352005
:EIG00041:       1.1884403    1.2937341    1.3223501    1.3408663    1.3531793
:EIG00046:       1.4087708    1.4303522    1.4385594    1.4617910    1.5121513
 
:EIG00051:       1.5525554    1.5626081    1.6667973    1.6863110    1.8354520
       ********************************************************

:KPT   :      NUMBER OF K-POINTS:    84

------- case.scf2 --------
:GMA  : POTENTIAL AND CHARGE CUT-OFF  12.00 Ry**.5




:POS001: at.nr.  -1 position = 0.25000 0.75000 0.00000  multiplicity =  2

       lmmax  8
       lm=   0 0  2 0 -3 2  4 0  4 4 -5 2  6 0  6 4




:POS002: at.nr.  -2 position = 0.25000 0.75000 0.00000  multiplicity =  2

       lmmax 10
       lm=   0 0  1 0  2 0  3 0  4 0  4 4  5 0  5 4  6 0  6 4
:FER gutzwiller fermi energy   0.39156
:EORB          0.029024262
:SUM sum of gutz band energies       -101.202140522

:CHA001: total charge inside sphere   1 =    12.437126
:PCS001: partial charges sphere =  1 s,p,d,f,pz,pxy,,d-z2,d-xy,d-x2y2,d-xz,yz 
:QTL001: 0.2396 6.1981 5.9852 0.0117 2.0591 4.1390 0.0000 1.3411 1.2154 1.2041 2.2246 0.0000
:VZZ001: efg inside sphere   1 =     0.781450      up to r =   2.16000

:CHA002: total charge inside sphere   2 =    13.357316
:PCS002: partial charges sphere =  2 s,p,d,f,pz,pxy,,d-z2,d-xy,d-x2y2,d-xz,yz 
:QTL002: 1.3720 1.960810.0172 0.0061 0.6633 1.2975 0.0000 2.0034 2.0021 2.0024 4.0094 0.0000
:VZZ002: efg inside sphere   2 =    -2.380339      up to r =   2.05000

:CHA  : total charge inside unit cell =      60.000000

------- case.scfc --------

        1.ATOM      Fe                    5 CORE STATES
:1S 001: 1S                -512.216122650 Ry
:2S 001: 2S                 -59.146351567 Ry
:2PP001: 2P*                -50.948565913 Ry
:2P 001: 2P                 -50.033349831 Ry
:3S 001: 3S                  -5.924992706 Ry

        2.ATOM      Se                    7 CORE STATES
       CORE-FORCE in mRy/a.u. = |F|      Fx             Fy             Fz
:FCO002:   2.ATOM   1218.654582574178      0.000000000000      0.000000000000  -1218.654582574178

:1S 002: 1S                -916.460053928 Ry
:2S 002: 2S                -117.119125621 Ry
:2PP002: 2P*               -105.094473298 Ry
:2P 002: 2P                -102.031212565 Ry
:3S 002: 3S                 -14.850063057 Ry
:3PP002: 3P*                -10.737168922 Ry
:3P 002: 3P                 -10.304690993 Ry

------- case.scfm --------
:CINT001 Core Integral Atom   1   11.997221
:CINT002 Core Integral Atom   2   17.999415

       DENSITY AT NUCLEUS
        JATOM        VALENCE       SEMI-CORE          CORE           TOTAL
:RTO001:   1        5.318941        0.000000    14798.121602    14803.440543
:RTO002:   2       56.933314        0.000000    38924.753332    38981.686646
     
       CHARGES OF NEW CHARGE DENSITY
:NTO   : INTERSTITIAL CHARGE =     8.410904
:NPC   : PW Pseudocharge     =    13.290601
:NTO001: CHARGE SPHERE  1    =    24.434347
:NTO002: CHARGE SPHERE  2    =    31.356731

:NEC01: NUCLEAR AND ELECTRONIC CHARGE    120.00000   119.99306
     
       CHARGES OF OLD CHARGE DENSITY
:OTO   : INTERSTITIAL CHARGE =     8.436951
:OPC   : PW Pseudocharge     =    13.318229
:OTO001: CHARGE SPHERE  1    =    24.432467
:OTO002: CHARGE SPHERE  2    =    31.349058

:NEC02: NUCLEAR AND ELECTRONIC CHARGE    120.00000   120.00000
     
       CONVERGENCE TEST
:DTO001: DIFFERENCE IN SPHERE  1 =  0.0176021
:DTO002: DIFFERENCE IN SPHERE  2 =  0.0074280

:DIS  :  CHARGE DISTANCE       ( 0.0176021 for atom    1 spin 1)      0.0125151
 PW Mixed is          365
 
******************************************************
* MULTISECANT MIXING VER9 RELEASE 10.4.0              *
* Standard Mode with controls                        *
* Fixed density scale                                *
* Regularization       1.000E-04                     *
* Trust Upper Limit    5.000E+00                     *
* Max Number of Memory Steps    8                    *
******************************************************
 
:PWTMP   3.7368E+02  3.2249E+02  5.3028E+02
:PLANE:  PW TOTAL      3.6259 DISTAN   2.07E-02  5.70E-01 %
:CHARG:  CLM/ATOM    303.3359 DISTAN   2.60E-02  8.57E-03 %
 
Step History
        DMIX         DMIXT        Red     Pred      Trust     Lambda    MagRel    MagAbs     Beta
  1   3.5000E-02   3.5000E-02 -1.00E+00  1.00E+00 -1.00E+01  1.00E+00  3.50E-02  3.50E-02  1.00E+00
  2   2.5000E-02   2.5000E-02  9.05E-01  1.00E+00 -1.00E+01  1.00E+00  2.50E-02  4.47E-03  1.00E+00
  3   2.0000E-02   2.0000E-02  8.91E-01  9.21E-01  4.49E-01  3.89E-01  3.51E-01  5.67E-02  1.00E+00
  4   5.0000E-02   5.0000E-02 -1.00E+00  5.76E-01  5.04E-01  1.00E+00  4.74E-01  6.84E-02  8.00E-01
:JACOBIANS    8.850E-01   2.690E-01
  
:NORMS:  1/Froebius, Min, Max, Used   0.5343E+00  0.4643E+00  0.1001E+01  0.5864E+00
:INFO :  Number of Memory Steps    3 Skipping    0
:INFO :  SLambda=    1.4881894162  Max    1.4881894162
:PREDicted Charge, CTotal, PW Trust    1.920E-02   3.042E-02   8.399E-02
:PREDicted DMix, Beta, BLim   1.4412E-01  1.3864E+00  8.4542E-01

Eigenvalues, unscaled except for SY+YY
   #     SY Real        SY Imag          SS             YY         SY+YY Real      SY+YY Imag
   1   1.063209E+00   0.000000E+00   5.822579E-01   2.701268E+00   4.295203E+00   0.000000E+00
   2   1.772490E-06   0.000000E+00   2.742113E-01   2.987078E-01   2.608207E-05   0.000000E+00
   3   3.176686E-01   0.000000E+00   1.612364E-07   2.391973E-05   7.597799E-01   0.000000E+00
 
:INFO :  Singular value  4.305E+00 Weight  1.000E+00 Projection  2.458E-02
:INFO :  Singular value  7.580E-01 Weight  1.000E+00 Projection  3.158E-02
:INFO :  Singular value  2.608E-05 Weight  9.237E-03 Projection -2.516E-02
:RANK :  ACTIVE   2.01/3  =  66.97 % ; YY RANK   2.01/3  =  66.93 %
 
:BLIM :  VZERO Control Off
:TRUST:  Step 6.72E-01  Charge 7.50E-02 (e) CTO  2.50E-01 (e) PW  3.50E-01 (e)
:DIRM :  MEMORY  3/8  SCALE   1.000 RED  0.39 PRED  0.58 NEXT  0.76 
:TRAVE:  Charge 6.65E-03 (e) CTO  1.10E-02 (e) PW  3.64E-02 (e)
:DIRP :  |MSR1|= 2.212E-02 |PRATT|= 2.066E-02 ANGLE=  41.9 DEGREES
:DIRQ :  |MSR1|= 1.839E-02 |PRATT|= 5.199E-02 ANGLE=  18.6 DEGREES
:DIRT :  |MSR1|= 2.877E-02 |PRATT|= 5.594E-02 ANGLE=  39.2 DEGREES
:MIX  :   MSE1   REGULARIZATION:  2.70E-04 GREED: 0.09081  Newton 1.00  0.5143                
     
       CHARGES OF MIXED CHARGE DENSITY
:CTO   : INTERSTITIAL CHARGE =     8.428193
:CPC   : PW Pseudocharge     =    13.288377
:CTO001: CHARGE SPHERE  1    =    24.432022
:CTO002: CHARGE SPHERE  2    =    31.353881

:NEC03: NUCLEAR AND ELECTRONIC CHARGE    120.00000   120.00000

PW CHANGE     H    K    L      Current       Change    Residue
:PTO001:      0    0    0  4.09530063E-02 -7.281E-05 -6.745E-05
:PTO002:      0    0   -1  8.56050830E-03  5.210E-05 -7.493E-06
:PTO004:     -1    0   -1 -8.69145287E-02  4.418E-04  1.097E-04
:PTO005:      0    0   -2 -7.63501832E-03  1.164E-04  2.365E-05
:PTO006:     -1   -1    0 -2.13185420E-02  3.073E-04  1.702E-04
:PTO007:     -1   -1   -1  3.46604069E-02 -3.131E-05 -1.291E-04
:PTO008:     -1    0   -2  2.42944629E-02 -3.025E-04 -4.671E-04
:PTO009:     -1   -1   -2  2.27871226E-02 -1.250E-04  1.549E-04
:PTO010:     -2    0    0 -1.29536715E-02  1.101E-04  3.283E-05
:PTO011:      0    0   -3  4.69678816E-03 -4.348E-05 -1.885E-05
:PTO012:     -2    0   -1  6.15984714E-03 -2.111E-04 -3.945E-04
:PTO014:     -1    0   -3  4.24025763E-03 -1.002E-04  4.398E-05

:ENE  : ********** TOTAL ENERGY IN Ry =       -14790.22082048

       TOTAL FORCE IN mRy/a.u. = |F|     Fx             Fy             Fz     with/without FOR in case.in2
:FOR001:   1.ATOM          0.000          0.000          0.000          0.000 partial forces
:FOR002:   2.ATOM        170.116          0.000          0.000        170.116 partial forces
       TOTAL FORCE WITH RESPECT TO GLOBAL CARTESIAN COORDINATES:
:FCA001:   1.ATOM                         0.000          0.000          0.000 partial forces
:FCA002:   2.ATOM                         0.000          0.000        170.116 partial forces
       TOTAL FORCE WITH RESPECT TO THE GLOBAL COORDINATE SYSTEM:
:FGL001:   1.ATOM                 0.000000000     0.000000000     0.000000000 partial forces
:FGL002:   2.ATOM                 0.000000000     0.000000000   170.116395893 partial forces

------- case.scf0 --------
 Flat Integration
 New Mode for Coulomb Integral
 Consistent 3/8+Simpson combinations
 Extension of core to zero
 LDM version in phi
 Fifth-order quadrature in outwin


            ---------
:ITE014: 14. ITERATION
            ---------

:NATO :    2 INDEPENDENT AND    4 TOTAL ATOMS IN UNITCELL
       SUBSTANCE: FeSe                                                        

       LATTICE                      = P   
:POT  : POTENTIAL OPTION EX_LDA EC_LDA VX_LDA VC_LDA
:LAT  : LATTICE CONSTANTS=  7.12881  7.12881 10.43450    1.571    1.571    1.571
:VOL  : UNIT CELL VOLUME =     530.28024
       MODE OF CALCULATION IS       = RELA
       NON-SPINPOLARIZED CALCULATION
:IFFT  : FFT-parameters:   60   60   80 Factor: 2.00


   CONVERGENCE PARAMETER FOR PSEUDOCHARGE: NCON=  9
   MAXIMAL VALUE OF RMT(JATOM)*ABSK(NKK) : RK  =25.91023


:VKCOUL :  VK-COUL convergence: 0.230E-06
       ATOMNUMBER=  1 Fe         VCOUL-ZERO =  0.27214E+00
:EFG001:                        EFG         =     0.64813   *10**21  V / m**2
                               V20  TOT/SRF=     0.56130    -0.02474
                               V22  TOT/SRF=     0.00000     0.00000
                               V22M TOT/SRF=     0.00000     0.00000
                               V21  TOT/SRF=     0.00000     0.00000
                               V21M TOT/SRF=     0.00000     0.00000

             -0.32407    0.00000    0.00000       -0.32407    0.00000    0.00000
              0.00000   -0.32407    0.00000        0.00000   -0.32407    0.00000
              0.00000    0.00000    0.64813        0.00000    0.00000    0.64813

         MAIN DIRECTIONS OF THE EFG   1.0000  0.0000  0.0000
                                      0.0000  1.0000  0.0000
                                      0.0000  0.0000  1.0000
:ANG001:  ANGLE WITH OLD X-AXIS =         0.0

:ETA001:                         ASYMM. ETA =     0.00000


       ATOMNUMBER=  2 Se         VCOUL-ZERO =  0.86446E-01
:EFG002:                        EFG         =    -2.65749   *10**21  V / m**2
                               V20  TOT/SRF=    -2.30145     0.01697
                               V22  TOT/SRF=     0.00000     0.00000
                               V22M TOT/SRF=     0.00000     0.00000
                               V21  TOT/SRF=     0.00000     0.00000
                               V21M TOT/SRF=     0.00000     0.00000

              1.32874    0.00000    0.00000        1.32874    0.00000    0.00000
              0.00000    1.32874    0.00000        0.00000    1.32874    0.00000
              0.00000    0.00000   -2.65749        0.00000    0.00000   -2.65749

         MAIN DIRECTIONS OF THE EFG   1.0000  0.0000  0.0000
                                      0.0000  1.0000  0.0000
                                      0.0000  0.0000  1.0000
:ANG002:  ANGLE WITH OLD X-AXIS =         0.0

:ETA002:                         ASYMM. ETA =     0.00000


     HELLMANN-FEYNMAN-FORCE IN mRy/a.u. = |F|  Fx       Fy             Fz
:FHF001:   1.ATOM      0.000000000000      0.000000000000      0.000000000000      0.000000000000

     HELLMANN-FEYNMAN-FORCE IN mRy/a.u. = |F|  Fx       Fy             Fz
:FHF002:   2.ATOM   1384.194841179591      0.000000000000      0.000000000000   1384.194841179591

:FIT001: LUSE= 13 SIGMA OF V-XC FIT FOR ATOM  1  0.1022334E-02
:FIT001: LUSE= 13 SIGMA OF V-XC FIT FOR ATOM  1  0.1022334E-02
:FIT002: LUSE= 13 SIGMA OF V-XC FIT FOR ATOM  2  0.2005421E-03
:FIT002: LUSE= 13 SIGMA OF V-XC FIT FOR ATOM  2  0.2005421E-03
:DEN  : DENSITY INTEGRAL  =         -6220.42488619   (Ry)
       ELS_POTENTIAL_AT Z=0 and Z=0.5:  -0.70818   0.57090
       ELS_POTENTIAL_AT Y=0 and Y=0.5:   0.00000   0.00000
:VZERO:v0,v0c,v0x  -1.50357  -0.70818  -0.79539 v5,v5c,v5x  -0.02590   0.57090  -0.59680
:VZERY:v0,v0c,v0x  -0.72328   0.00000  -0.72328 v5,v5c,v5x  -0.72328   0.00000  -0.72328
:VZERX:v0,v0c,v0x   0.09078   0.78614  -0.69536 v5,v5c,v5x   0.09078   0.78614  -0.69536

------- case.scf1 --------
:LMAX-WF:   10   Non-Spherical LMAX:   4

          ATOMIC SPHERE DEPENDENT PARAMETERS FOR ATOM  Fe        
:e__0001: OVERALL ENERGY PARAMETER IS    0.1896
          OVERALL BASIS SET ON ATOM IS LAPW
:E1_0001: E( 1)=    0.1896
             APW+lo
:E1_0001: E( 1)=   -3.4812   E(BOTTOM)=   -3.572   E(TOP)=   -3.391  1  2   150
             LOCAL ORBITAL
:E2_0001: E( 2)=    0.3100   E(BOTTOM)=   -0.043   E(TOP)=    0.663  0  1   137
             APW+lo
:E0_0001: E( 0)=    0.1896
             APW+lo

          ATOMIC SPHERE DEPENDENT PARAMETERS FOR ATOM  Se        
:e__0002: OVERALL ENERGY PARAMETER IS    0.1896
          OVERALL BASIS SET ON ATOM IS LAPW
:E2_0002: E( 2)=    0.1896
             APW+lo
:E2_0002: E( 2)=   -3.1547   E(BOTTOM)=   -3.198   E(TOP)=   -3.111  0  1   139
             LOCAL ORBITAL
:E0_0002: E( 0)=    0.5896
             APW+lo
:E0_0002: E( 0)=   -1.0200   E(BOTTOM)=   -1.611   E(TOP)= -200.000  3 -1   181
             LOCAL ORBITAL
:E1_0002: E( 1)=    0.1896
             APW+lo

       K=   0.04545   0.04545   0.07143            1
:RKM  : MATRIX SIZE   582LOs:  54  RKM= 7.97  WEIGHT= 8.00  PGR:    
       EIGENVALUES ARE:
:EIG00001:      -3.4677489   -3.4675311   -3.4590796   -3.4588616   -3.4582998
:EIG00006:      -3.4563909   -3.1445997   -3.1445451   -3.1443072   -3.1442577
:EIG00011:      -3.1440005   -3.1439947   -3.1439756   -3.1439677   -3.1435562
:EIG00016:      -3.1435234   -0.6497492   -0.5538089   -0.0285291    0.1397103
:EIG00021:       0.1555582    0.1595080    0.1921366    0.1959684    0.2216189
:EIG00026:       0.3168560    0.3458074    0.3499067    0.3912877    0.4032729
:EIG00031:       0.4080690    0.4488390    0.5082463    0.5222026    0.5766985
:EIG00036:       0.7723509    0.8057152    0.8602313    0.8755977    0.9354031
:EIG00041:       1.1894163    1.2943985    1.3225790    1.3412609    1.3538024
:EIG00046:       1.4083188    1.4306326    1.4395187    1.4622545    1.5126403
 
:EIG00051:       1.5529508    1.5631406    1.6668090    1.6861060    1.8351331
       ********************************************************

:KPT   :      NUMBER OF K-POINTS:    84

------- case.scf2 --------
:GMA  : POTENTIAL AND CHARGE CUT-OFF  12.00 Ry**.5




:POS001: at.nr.  -1 position = 0.25000 0.75000 0.00000  multiplicity =  2

       lmmax  8
       lm=   0 0  2 0 -3 2  4 0  4 4 -5 2  6 0  6 4




:POS002: at.nr.  -2 position = 0.25000 0.75000 0.00000  multiplicity =  2

       lmmax 10
       lm=   0 0  1 0  2 0  3 0  4 0  4 4  5 0  5 4  6 0  6 4
:FER gutzwiller fermi energy   0.39232
:EORB          0.021434967
:SUM sum of gutz band energies       -101.100896166

:CHA001: total charge inside sphere   1 =    12.439320
:PCS001: partial charges sphere =  1 s,p,d,f,pz,pxy,,d-z2,d-xy,d-x2y2,d-xz,yz 
:QTL001: 0.2411 6.1996 5.9844 0.0117 2.0594 4.1402 0.0000 1.3410 1.2182 1.2016 2.2235 0.0000
:VZZ001: efg inside sphere   1 =     0.814101      up to r =   2.16000

:CHA002: total charge inside sphere   2 =    13.349340
:PCS002: partial charges sphere =  2 s,p,d,f,pz,pxy,,d-z2,d-xy,d-x2y2,d-xz,yz 
:QTL002: 1.3716 1.953010.0175 0.0061 0.6608 1.2922 0.0000 2.0034 2.0021 2.0024 4.0096 0.0000
:VZZ002: efg inside sphere   2 =    -2.407241      up to r =   2.05000

:CHA  : total charge inside unit cell =      60.000000

------- case.scfc --------

        1.ATOM      Fe                    5 CORE STATES
:1S 001: 1S                -512.211865473 Ry
:2S 001: 2S                 -59.142111159 Ry
:2PP001: 2P*                -50.944267936 Ry
:2P 001: 2P                 -50.029058043 Ry
:3S 001: 3S                  -5.924025874 Ry

        2.ATOM      Se                    7 CORE STATES
       CORE-FORCE in mRy/a.u. = |F|      Fx             Fy             Fz
:FCO002:   2.ATOM   1205.014135963597      0.000000000000      0.000000000000  -1205.014135963597

:1S 002: 1S                -916.456067802 Ry
:2S 002: 2S                -117.115367644 Ry
:2PP002: 2P*               -105.090687592 Ry
:2P 002: 2P                -102.027430639 Ry
:3S 002: 3S                 -14.846349631 Ry
:3PP002: 3P*                -10.733463464 Ry
:3P 002: 3P                 -10.300989385 Ry

------- case.scfm --------
:CINT001 Core Integral Atom   1   11.997215
:CINT002 Core Integral Atom   2   17.999414

       DENSITY AT NUCLEUS
        JATOM        VALENCE       SEMI-CORE          CORE           TOTAL
:RTO001:   1        5.354696        0.000000    14798.054833    14803.409529
:RTO002:   2       56.897406        0.000000    38924.745637    38981.643042
     
       CHARGES OF NEW CHARGE DENSITY
:NTO   : INTERSTITIAL CHARGE =     8.422610
:NPC   : PW Pseudocharge     =    13.287576
:NTO001: CHARGE SPHERE  1    =    24.436535
:NTO002: CHARGE SPHERE  2    =    31.348755

:NEC01: NUCLEAR AND ELECTRONIC CHARGE    120.00000   119.99319
     
       CHARGES OF OLD CHARGE DENSITY
:OTO   : INTERSTITIAL CHARGE =     8.428193
:OPC   : PW Pseudocharge     =    13.288377
:OTO001: CHARGE SPHERE  1    =    24.432022
:OTO002: CHARGE SPHERE  2    =    31.353881

:NEC02: NUCLEAR AND ELECTRONIC CHARGE    120.00000   120.00000
     
       CONVERGENCE TEST
:DTO001: DIFFERENCE IN SPHERE  1 =  0.0119293
:DTO002: DIFFERENCE IN SPHERE  2 =  0.0085907

:DIS  :  CHARGE DISTANCE       ( 0.0119293 for atom    1 spin 1)      0.0102600
 PW Mixed is          365
 
******************************************************
* MULTISECANT MIXING VER9 RELEASE 10.4.0              *
* Standard Mode with controls                        *
* Fixed density scale                                *
* Regularization       1.000E-04                     *
* Trust Upper Limit    5.000E+00                     *
* Max Number of Memory Steps    8                    *
******************************************************
 
:PWTMP   3.7368E+02  3.2249E+02  5.3028E+02
:PLANE:  PW TOTAL      3.6120 DISTAN   1.27E-02  3.51E-01 %
:CHARG:  CLM/ATOM    303.3363 DISTAN   1.69E-02  5.58E-03 %
 
Step History
        DMIX         DMIXT        Red     Pred      Trust     Lambda    MagRel    MagAbs     Beta
  1   3.5000E-02   3.5000E-02 -1.00E+00  1.00E+00 -1.00E+01  1.00E+00  3.50E-02  3.50E-02  1.00E+00
  2   2.5000E-02   2.5000E-02  9.05E-01  1.00E+00 -1.00E+01  1.00E+00  2.50E-02  4.47E-03  1.00E+00
  3   2.0000E-02   2.0000E-02  8.91E-01  9.21E-01  4.49E-01  3.89E-01  3.51E-01  5.67E-02  1.00E+00
  4   5.0000E-02   5.0000E-02  3.88E-01  5.76E-01  5.04E-01  1.49E+00  4.74E-01  6.84E-02  8.00E-01
  5   9.0812E-02   9.0812E-02 -1.00E+00  7.59E-01  6.72E-01  1.00E+00  5.14E-01  2.88E-02  1.00E+00
:JACOBIANS    9.929E-01   4.878E-01
  
:NORMS:  1/Froebius, Min, Max, Used   0.5838E+00  0.5176E+00  0.1000E+01  0.6054E+00
:INFO :  Number of Memory Steps    4 Skipping    0
:INFO :  SLambda=    0.3851141910  Max    0.3851141910
:PREDicted Charge, CTotal, PW Trust    2.736E-03   9.423E-03   1.664E-02
:PREDicted DMix, Beta, BLim   3.4979E-01  9.9705E-01  9.5317E-01

Eigenvalues, unscaled except for SY+YY
   #     SY Real        SY Imag          SS             YY         SY+YY Real      SY+YY Imag
   1   1.690561E+00   0.000000E+00   1.183157E+00   3.693082E+00   4.340313E+00   0.000000E+00
   2   2.671281E-01   0.000000E+00   1.781332E-01   2.966268E-01   4.032134E-01   0.000000E+00
   3   6.516713E-07   0.000000E+00   2.126456E-03   1.028414E-02   7.616458E-06   0.000000E+00
   4   3.878476E-03   0.000000E+00   5.017228E-08   6.979639E-06   1.189401E-02   0.000000E+00
 
:INFO :  Singular value  4.341E+00 Weight  1.000E+00 Projection  2.975E-04
:INFO :  Singular value  4.032E-01 Weight  1.000E+00 Projection -3.491E-03
:INFO :  Singular value  1.189E-02 Weight  9.990E-01 Projection -2.679E-01
:INFO :  Singular value  7.616E-06 Weight  4.252E-04 Projection -2.928E-03
:RANK :  ACTIVE   3.00/4  =  74.99 % ; YY RANK   3.00/4  =  74.98 %
 
:DLIM :  Beta Active  9.978E-01
:BLIM :  VZERO Control Off
:TRUST:  Step 8.96E-01  Charge 6.00E-02 (e) CTO  2.00E-01 (e) PW  2.80E-01 (e)
:DIRM :  MEMORY  4/8  SCALE   1.000 RED  0.65 PRED  0.76 NEXT  0.73 BETA  1.00
:TRAVE:  Charge 3.83E-03 (e) CTO  5.59E-03 (e) PW  2.20E-02 (e)
:DIRP :  |MSR1|= 8.899E-03 |PRATT|= 1.270E-02 ANGLE=  41.8 DEGREES
:DIRQ :  |MSR1|= 1.557E-02 |PRATT|= 3.385E-02 ANGLE=   9.5 DEGREES
:DIRT :  |MSR1|= 1.793E-02 |PRATT|= 3.615E-02 ANGLE=  21.3 DEGREES
:MIX  :   MSD1   REGULARIZATION:  3.69E-04 GREED: 0.20697  Newton 1.00  0.4959                
     
       CHARGES OF MIXED CHARGE DENSITY
:CTO   : INTERSTITIAL CHARGE =     8.428404
:CPC   : PW Pseudocharge     =    13.300575
:CTO001: CHARGE SPHERE  1    =    24.432922
:CTO002: CHARGE SPHERE  2    =    31.352875

:NEC03: NUCLEAR AND ELECTRONIC CHARGE    120.00000   120.00000

PW CHANGE     H    K    L      Current       Change    Residue
:PTO001:      0    0    0  4.09764079E-02  2.340E-05  2.106E-05
:PTO002:      0    0   -1  8.55741540E-03 -3.093E-06  9.888E-05
:PTO004:     -1    0   -1 -8.71158757E-02 -2.013E-04 -1.336E-04
:PTO005:      0    0   -2 -7.68946330E-03 -5.444E-05 -3.899E-05
:PTO006:     -1   -1    0 -2.14231623E-02 -1.046E-04 -5.504E-05
:PTO007:     -1   -1   -1  3.46070909E-02 -5.332E-05 -1.523E-04
:PTO008:     -1    0   -2  2.42441774E-02 -5.029E-05 -2.583E-04
:PTO009:     -1   -1   -2  2.29383946E-02  1.513E-04  2.187E-04
:PTO010:     -2    0    0 -1.30024655E-02 -4.879E-05 -3.129E-05
:PTO011:      0    0   -3  4.71423056E-03  1.744E-05  7.955E-06
:PTO012:     -2    0   -1  6.10545251E-03 -5.439E-05 -1.559E-04
:PTO014:     -1    0   -3  4.32810973E-03  8.785E-05  1.341E-04

:ENE  : ********** TOTAL ENERGY IN Ry =       -14790.22099823

       TOTAL FORCE IN mRy/a.u. = |F|     Fx             Fy             Fz     with/without FOR in case.in2
:FOR001:   1.ATOM          0.000          0.000          0.000          0.000 partial forces
:FOR002:   2.ATOM        179.181          0.000          0.000        179.181 partial forces
       TOTAL FORCE WITH RESPECT TO GLOBAL CARTESIAN COORDINATES:
:FCA001:   1.ATOM                         0.000          0.000          0.000 partial forces
:FCA002:   2.ATOM                         0.000          0.000        179.181 partial forces
       TOTAL FORCE WITH RESPECT TO THE GLOBAL COORDINATE SYSTEM:
:FGL001:   1.ATOM                 0.000000000     0.000000000     0.000000000 partial forces
:FGL002:   2.ATOM                 0.000000000     0.000000000   179.180705216 partial forces

------- case.scf0 --------
 Flat Integration
 New Mode for Coulomb Integral
 Consistent 3/8+Simpson combinations
 Extension of core to zero
 LDM version in phi
 Fifth-order quadrature in outwin


            ---------
:ITE015: 15. ITERATION
            ---------

:NATO :    2 INDEPENDENT AND    4 TOTAL ATOMS IN UNITCELL
       SUBSTANCE: FeSe                                                        

       LATTICE                      = P   
:POT  : POTENTIAL OPTION EX_LDA EC_LDA VX_LDA VC_LDA
:LAT  : LATTICE CONSTANTS=  7.12881  7.12881 10.43450    1.571    1.571    1.571
:VOL  : UNIT CELL VOLUME =     530.28024
       MODE OF CALCULATION IS       = RELA
       NON-SPINPOLARIZED CALCULATION
:IFFT  : FFT-parameters:   60   60   80 Factor: 2.00


   CONVERGENCE PARAMETER FOR PSEUDOCHARGE: NCON=  9
   MAXIMAL VALUE OF RMT(JATOM)*ABSK(NKK) : RK  =25.91023


:VKCOUL :  VK-COUL convergence: 0.230E-06
       ATOMNUMBER=  1 Fe         VCOUL-ZERO =  0.27362E+00
:EFG001:                        EFG         =     0.68390   *10**21  V / m**2
                               V20  TOT/SRF=     0.59227    -0.02214
                               V22  TOT/SRF=     0.00000     0.00000
                               V22M TOT/SRF=     0.00000     0.00000
                               V21  TOT/SRF=     0.00000     0.00000
                               V21M TOT/SRF=     0.00000     0.00000

             -0.34195    0.00000    0.00000       -0.34195    0.00000    0.00000
              0.00000   -0.34195    0.00000        0.00000   -0.34195    0.00000
              0.00000    0.00000    0.68390        0.00000    0.00000    0.68390

         MAIN DIRECTIONS OF THE EFG   1.0000  0.0000  0.0000
                                      0.0000  1.0000  0.0000
                                      0.0000  0.0000  1.0000
:ANG001:  ANGLE WITH OLD X-AXIS =         0.0

:ETA001:                         ASYMM. ETA =     0.00000


       ATOMNUMBER=  2 Se         VCOUL-ZERO =  0.85954E-01
:EFG002:                        EFG         =    -2.51836   *10**21  V / m**2
                               V20  TOT/SRF=    -2.18096     0.01598
                               V22  TOT/SRF=     0.00000     0.00000
                               V22M TOT/SRF=     0.00000     0.00000
                               V21  TOT/SRF=     0.00000     0.00000
                               V21M TOT/SRF=     0.00000     0.00000

              1.25918    0.00000    0.00000        1.25918    0.00000    0.00000
              0.00000    1.25918    0.00000        0.00000    1.25918    0.00000
              0.00000    0.00000   -2.51836        0.00000    0.00000   -2.51836

         MAIN DIRECTIONS OF THE EFG   1.0000  0.0000  0.0000
                                      0.0000  1.0000  0.0000
                                      0.0000  0.0000  1.0000
:ANG002:  ANGLE WITH OLD X-AXIS =         0.0

:ETA002:                         ASYMM. ETA =     0.00000


     HELLMANN-FEYNMAN-FORCE IN mRy/a.u. = |F|  Fx       Fy             Fz
:FHF001:   1.ATOM      0.000000000000      0.000000000000      0.000000000000      0.000000000000

     HELLMANN-FEYNMAN-FORCE IN mRy/a.u. = |F|  Fx       Fy             Fz
:FHF002:   2.ATOM   1232.524175116180      0.000000000000      0.000000000000   1232.524175116180

:FIT001: LUSE= 13 SIGMA OF V-XC FIT FOR ATOM  1  0.1009781E-02
:FIT001: LUSE= 13 SIGMA OF V-XC FIT FOR ATOM  1  0.1009781E-02
:FIT002: LUSE= 13 SIGMA OF V-XC FIT FOR ATOM  2  0.1966511E-03
:FIT002: LUSE= 13 SIGMA OF V-XC FIT FOR ATOM  2  0.1966511E-03
:DEN  : DENSITY INTEGRAL  =         -6220.25769306   (Ry)
       ELS_POTENTIAL_AT Z=0 and Z=0.5:  -0.70492   0.56857
       ELS_POTENTIAL_AT Y=0 and Y=0.5:   0.00000   0.00000
:VZERO:v0,v0c,v0x  -1.50037  -0.70492  -0.79545 v5,v5c,v5x  -0.02808   0.56857  -0.59665
:VZERY:v0,v0c,v0x  -0.72334   0.00000  -0.72334 v5,v5c,v5x  -0.72334   0.00000  -0.72334
:VZERX:v0,v0c,v0x   0.09099   0.78627  -0.69528 v5,v5c,v5x   0.09099   0.78627  -0.69528

------- case.scf1 --------
:LMAX-WF:   10   Non-Spherical LMAX:   4

          ATOMIC SPHERE DEPENDENT PARAMETERS FOR ATOM  Fe        
:e__0001: OVERALL ENERGY PARAMETER IS    0.1896
          OVERALL BASIS SET ON ATOM IS LAPW
:E1_0001: E( 1)=    0.1896
             APW+lo
:E1_0001: E( 1)=   -3.4801   E(BOTTOM)=   -3.570   E(TOP)=   -3.390  1  2   149
             LOCAL ORBITAL
:E2_0001: E( 2)=    0.3112   E(BOTTOM)=   -0.042   E(TOP)=    0.664  0  1   136
             APW+lo
:E0_0001: E( 0)=    0.1896
             APW+lo

          ATOMIC SPHERE DEPENDENT PARAMETERS FOR ATOM  Se        
:e__0002: OVERALL ENERGY PARAMETER IS    0.1896
          OVERALL BASIS SET ON ATOM IS LAPW
:E2_0002: E( 2)=    0.1896
             APW+lo
:E2_0002: E( 2)=   -3.1570   E(BOTTOM)=   -3.201   E(TOP)=   -3.113  0  1   145
             LOCAL ORBITAL
:E0_0002: E( 0)=    0.5896
             APW+lo
:E0_0002: E( 0)=   -1.0200   E(BOTTOM)=   -1.612   E(TOP)= -200.000  3 -1   178
             LOCAL ORBITAL
:E1_0002: E( 1)=    0.1896
             APW+lo

       K=   0.04545   0.04545   0.07143            1
:RKM  : MATRIX SIZE   582LOs:  54  RKM= 7.97  WEIGHT= 8.00  PGR:    
       EIGENVALUES ARE:
:EIG00001:      -3.4664528   -3.4662351   -3.4577890   -3.4577031   -3.4575711
:EIG00006:      -3.4557966   -3.1469428   -3.1468877   -3.1466438   -3.1465943
:EIG00011:      -3.1463412   -3.1463355   -3.1463166   -3.1463089   -3.1458970
:EIG00016:      -3.1458642   -0.6501606   -0.5540926   -0.0283707    0.1404854
:EIG00021:       0.1560997    0.1599661    0.1920767    0.1958523    0.2232720
:EIG00026:       0.3173866    0.3465549    0.3497579    0.3920759    0.4047288
:EIG00031:       0.4083988    0.4503471    0.5082661    0.5220904    0.5769355
:EIG00036:       0.7729571    0.8055856    0.8606454    0.8761592    0.9354187
:EIG00041:       1.1886441    1.2940794    1.3225166    1.3408084    1.3536557
:EIG00046:       1.4086812    1.4306997    1.4389622    1.4619956    1.5125739
 
:EIG00051:       1.5529686    1.5630667    1.6665510    1.6865472    1.8351960
       ********************************************************

:KPT   :      NUMBER OF K-POINTS:    84

------- case.scf2 --------
:GMA  : POTENTIAL AND CHARGE CUT-OFF  12.00 Ry**.5




:POS001: at.nr.  -1 position = 0.25000 0.75000 0.00000  multiplicity =  2

       lmmax  8
       lm=   0 0  2 0 -3 2  4 0  4 4 -5 2  6 0  6 4




:POS002: at.nr.  -2 position = 0.25000 0.75000 0.00000  multiplicity =  2

       lmmax 10
       lm=   0 0  1 0  2 0  3 0  4 0  4 4  5 0  5 4  6 0  6 4
:FER gutzwiller fermi energy   0.39230
:EORB          0.036837144
:SUM sum of gutz band energies       -101.137562259

:CHA001: total charge inside sphere   1 =    12.436333
:PCS001: partial charges sphere =  1 s,p,d,f,pz,pxy,,d-z2,d-xy,d-x2y2,d-xz,yz 
:QTL001: 0.2404 6.1989 5.9829 0.0117 2.0593 4.1396 0.0000 1.3415 1.2153 1.2008 2.2253 0.0000
:VZZ001: efg inside sphere   1 =     0.626699      up to r =   2.16000

:CHA002: total charge inside sphere   2 =    13.353049
:PCS002: partial charges sphere =  2 s,p,d,f,pz,pxy,,d-z2,d-xy,d-x2y2,d-xz,yz 
:QTL002: 1.3716 1.956910.0173 0.0061 0.6622 1.2947 0.0000 2.0034 2.0021 2.0024 4.0094 0.0000
:VZZ002: efg inside sphere   2 =    -2.444033      up to r =   2.05000

:CHA  : total charge inside unit cell =      60.000000

------- case.scfc --------

        1.ATOM      Fe                    5 CORE STATES
:1S 001: 1S                -512.214682632 Ry
:2S 001: 2S                 -59.143280562 Ry
:2PP001: 2P*                -50.945684448 Ry
:2P 001: 2P                 -50.030452995 Ry
:3S 001: 3S                  -5.923008211 Ry

        2.ATOM      Se                    7 CORE STATES
       CORE-FORCE in mRy/a.u. = |F|      Fx             Fy             Fz
:FCO002:   2.ATOM   1110.192307437840      0.000000000000      0.000000000000  -1110.192307437840

:1S 002: 1S                -916.460301420 Ry
:2S 002: 2S                -117.119124946 Ry
:2PP002: 2P*               -105.094537117 Ry
:2P 002: 2P                -102.031267411 Ry
:3S 002: 3S                 -14.848774164 Ry
:3PP002: 3P*                -10.735878165 Ry
:3P 002: 3P                 -10.303373557 Ry

------- case.scfm --------
:CINT001 Core Integral Atom   1   11.997216
:CINT002 Core Integral Atom   2   17.999415

       DENSITY AT NUCLEUS
        JATOM        VALENCE       SEMI-CORE          CORE           TOTAL
:RTO001:   1        5.337186        0.000000    14798.105934    14803.443120
:RTO002:   2       56.901533        0.000000    38924.792072    38981.693606
     
       CHARGES OF NEW CHARGE DENSITY
:NTO   : INTERSTITIAL CHARGE =     8.421262
:NPC   : PW Pseudocharge     =    13.289519
:NTO001: CHARGE SPHERE  1    =    24.433549
:NTO002: CHARGE SPHERE  2    =    31.352464

:NEC01: NUCLEAR AND ELECTRONIC CHARGE    120.00000   119.99329
     
       CHARGES OF OLD CHARGE DENSITY
:OTO   : INTERSTITIAL CHARGE =     8.428404
:OPC   : PW Pseudocharge     =    13.300575
:OTO001: CHARGE SPHERE  1    =    24.432922
:OTO002: CHARGE SPHERE  2    =    31.352875

:NEC02: NUCLEAR AND ELECTRONIC CHARGE    120.00000   120.00000
     
       CONVERGENCE TEST
:DTO001: DIFFERENCE IN SPHERE  1 =  0.0039493
:DTO002: DIFFERENCE IN SPHERE  2 =  0.0006334

:DIS  :  CHARGE DISTANCE       ( 0.0039493 for atom    1 spin 1)      0.0022913
 PW Mixed is          365
 
******************************************************
* MULTISECANT MIXING VER9 RELEASE 10.4.0              *
* Standard Mode with controls                        *
* Fixed density scale                                *
* Regularization       1.000E-04                     *
* Trust Upper Limit    5.000E+00                     *
* Max Number of Memory Steps    8                    *
******************************************************
 
:PWTMP   3.7368E+02  3.2249E+02  5.3028E+02
:PLANE:  PW TOTAL      3.6168 DISTAN   4.30E-03  1.19E-01 %
:CHARG:  CLM/ATOM    303.3345 DISTAN   6.54E-03  2.16E-03 %
 
Step History
        DMIX         DMIXT        Red     Pred      Trust     Lambda    MagRel    MagAbs     Beta
  1   3.5000E-02   3.5000E-02 -1.00E+00  1.00E+00 -1.00E+01  1.00E+00  3.50E-02  3.50E-02  1.00E+00
  2   2.5000E-02   2.5000E-02  9.05E-01  1.00E+00 -1.00E+01  1.00E+00  2.50E-02  4.47E-03  1.00E+00
  3   2.0000E-02   2.0000E-02  8.91E-01  9.21E-01  4.49E-01  3.89E-01  3.51E-01  5.67E-02  1.00E+00
  4   5.0000E-02   5.0000E-02  3.88E-01  5.76E-01  5.04E-01  1.49E+00  4.74E-01  6.84E-02  8.00E-01
  5   9.0812E-02   9.0812E-02  6.46E-01  7.59E-01  6.72E-01  3.85E-01  5.14E-01  2.88E-02  1.00E+00
  6   2.0697E-01   2.0697E-01 -1.00E+00  7.35E-01  8.96E-01  1.00E+00  4.96E-01  1.79E-02  9.98E-01
:JACOBIANS    1.067E+00   8.368E-01
  
:NORMS:  1/Froebius, Min, Max, Used   0.6452E+00  0.4786E+00  0.9992E+00  0.6525E+00
:INFO :  Number of Memory Steps    5 Skipping    0
:INFO :  SLambda=    1.0000000000  Max    1.0000000000
:PREDicted Charge, CTotal, PW Trust    4.212E-04   1.562E-03   4.670E-03
:PREDicted DMix, Beta, BLim   4.4482E-01  1.2614E+00  1.0576E+00

Eigenvalues, unscaled except for SY+YY
   #     SY Real        SY Imag          SS             YY         SY+YY Real      SY+YY Imag
   1   2.003091E+00   0.000000E+00   1.495280E+00   3.511730E+00   5.447871E+00   0.000000E+00
   2   5.765535E-01   0.000000E+00   4.518406E-01   1.207224E+00   1.845109E+00   0.000000E+00
   3   2.653127E-01   0.000000E+00   1.338674E-01   2.777061E-01   5.485913E-01   0.000000E+00
   4   2.409838E-07   0.000000E+00   1.496320E-04   3.336291E-03   3.829348E-06   0.000000E+00
   5   7.321314E-04   0.000000E+00   1.648888E-08   3.577506E-06   4.115563E-03   0.000000E+00
 
:INFO :  Singular value  5.451E+00 Weight  1.000E+00 Projection  5.194E-03
:INFO :  Singular value  1.848E+00 Weight  1.000E+00 Projection -7.813E-03
:INFO :  Singular value  5.475E-01 Weight  1.000E+00 Projection  3.158E-03
:INFO :  Singular value  4.115E-03 Weight  9.928E-01 Projection -8.955E-02
[...]
  7   2.9019E-01   2.9019E-01  4.09E-01  4.36E-01  1.19E+00  1.16E+00  7.73E-01  1.06E-02  1.00E+00
  8   3.5000E-01   3.5000E-01 -1.00E+00  2.55E-01  1.59E+00  1.00E+00  5.59E-01  3.15E-03  1.00E+00
:JACOBIANS    1.144E+00   1.545E+00
  
:NORMS:  1/Froebius, Min, Max, Used   0.7024E+00  0.5398E+00  0.9890E+00  0.7842E+00
:INFO :  Number of Memory Steps    7 Skipping    0
:INFO :  SLambda=    1.5036027096  Max    1.5036027096
:PREDicted Charge, CTotal, PW Trust    5.000E-04   1.205E-03   2.365E-03
:PREDicted DMix, Beta, BLim   1.0500E-01  9.1669E-01  5.5788E+00

Eigenvalues, unscaled except for SY+YY
   #     SY Real        SY Imag          SS             YY         SY+YY Real      SY+YY Imag
   1   3.086181E+00   0.000000E+00   2.576653E+00   4.189837E+00   8.732181E+00   0.000000E+00
   2   7.964693E-01   0.000000E+00   6.084296E-01   1.725026E+00   3.035299E+00   0.000000E+00
   3   4.100050E-01   0.000000E+00   1.502903E-01   8.568780E-01   1.437048E+00   0.000000E+00
   4   1.818234E-01   0.000000E+00   1.171365E-01   2.190760E-01   5.137011E-01   0.000000E+00
   5   2.456686E-03   0.000000E+00   7.162197E-04   9.107596E-03   1.322205E-02   0.000000E+00
   6   1.150759E-07   0.000000E+00   2.575665E-05   7.407381E-05   1.867291E-06   0.000000E+00
   7   4.335299E-05   0.000000E+00   7.914899E-09   1.559926E-06   1.454260E-04   0.000000E+00
 
:INFO :  Singular value  8.734E+00 Weight  1.000E+00 Projection  8.495E-05
:INFO :  Singular value  3.079E+00 Weight  1.000E+00 Projection  3.124E-05
:INFO :  Singular value  1.419E+00 Weight  1.000E+00 Projection -3.675E-04
:INFO :  Singular value  5.132E-01 Weight  1.000E+00 Projection -2.243E-04
:INFO :  Singular value  1.322E-02 Weight  9.990E-01 Projection  3.881E-03
:INFO :  Singular value  1.454E-04 Weight  1.075E-01 Projection -8.990E-03
:INFO :  Singular value  1.867E-06 Weight  1.986E-05 Projection  6.770E-06
:RANK :  ACTIVE   5.11/7  =  72.95 % ; YY RANK   5.03/7  =  71.83 %
 
:DLIM :  Beta Active  9.375E-01
:BLIM :  VZERO Control Off
:TRUST:  Step 3.43E+00  Charge 3.07E-02 (e) CTO  1.02E-01 (e) PW  1.43E-01 (e)
:DIRM :  MEMORY  7/8  SCALE   1.000 RED  0.17 PRED  0.26 NEXT  0.81 BETA  0.94
:TRAVE:  Charge 6.74E-04 (e) CTO  1.17E-03 (e) PW  3.67E-03 (e)
:DIRP :  |MSR1|= 1.926E-04 |PRATT|= 2.708E-04 ANGLE=  75.6 DEGREES
:DIRQ :  |MSR1|= 2.935E-04 |PRATT|= 9.403E-04 ANGLE=  23.0 DEGREES
:DIRT :  |MSR1|= 3.510E-04 |PRATT|= 9.785E-04 ANGLE=  39.0 DEGREES
:MIX  :   MSE1   REGULARIZATION:  4.19E-04 GREED: 0.19322  Newton 1.00  0.3587                
     
       CHARGES OF MIXED CHARGE DENSITY
:CTO   : INTERSTITIAL CHARGE =     8.428686
:CPC   : PW Pseudocharge     =    13.300718
:CTO001: CHARGE SPHERE  1    =    24.432846
:CTO002: CHARGE SPHERE  2    =    31.352811

:NEC03: NUCLEAR AND ELECTRONIC CHARGE    120.00000   120.00000

PW CHANGE     H    K    L      Current       Change    Residue
:PTO001:      0    0    0  4.09772079E-02 -1.446E-07  1.622E-06
:PTO002:      0    0   -1  8.56440175E-03  1.007E-06  8.479E-07
:PTO004:     -1    0   -1 -8.70979306E-02  3.649E-06 -9.764E-07
:PTO005:      0    0   -2 -7.68294386E-03  1.174E-06  4.616E-07
:PTO006:     -1   -1    0 -2.14052874E-02  2.059E-06 -2.174E-06
:PTO007:     -1   -1   -1  3.45906419E-02 -1.349E-07  4.258E-07
:PTO008:     -1    0   -2  2.41651012E-02 -2.370E-06 -1.881E-07
:PTO009:     -1   -1   -2  2.29832726E-02 -1.078E-06  1.276E-06
:PTO010:     -2    0    0 -1.30039128E-02  1.390E-06  1.317E-06
:PTO011:      0    0   -3  4.71969894E-03  3.940E-08  1.779E-06
:PTO012:     -2    0   -1  6.02425096E-03 -1.703E-06 -1.985E-06
:PTO014:     -1    0   -3  4.33509750E-03 -1.639E-06 -2.658E-06

:ENE  : ********** TOTAL ENERGY IN Ry =       -14790.22068798

       TOTAL FORCE IN mRy/a.u. = |F|     Fx             Fy             Fz     with/without FOR in case.in2
:FOR001:   1.ATOM          0.000          0.000          0.000          0.000 partial forces
:FOR002:   2.ATOM        111.037          0.000          0.000        111.037 partial forces
       TOTAL FORCE WITH RESPECT TO GLOBAL CARTESIAN COORDINATES:
:FCA001:   1.ATOM                         0.000          0.000          0.000 partial forces
:FCA002:   2.ATOM                         0.000          0.000        111.037 partial forces
       TOTAL FORCE WITH RESPECT TO THE GLOBAL COORDINATE SYSTEM:
:FGL001:   1.ATOM                 0.000000000     0.000000000     0.000000000 partial forces
:FGL002:   2.ATOM                 0.000000000     0.000000000   111.037154577 partial forces

------- case.scf0 --------
 Flat Integration
 New Mode for Coulomb Integral
 Consistent 3/8+Simpson combinations
 Extension of core to zero
 LDM version in phi
 Fifth-order quadrature in outwin


            ---------
:ITE018: 18. ITERATION
            ---------

:NATO :    2 INDEPENDENT AND    4 TOTAL ATOMS IN UNITCELL
       SUBSTANCE: FeSe                                                        

       LATTICE                      = P   
:POT  : POTENTIAL OPTION EX_LDA EC_LDA VX_LDA VC_LDA
:LAT  : LATTICE CONSTANTS=  7.12881  7.12881 10.43450    1.571    1.571    1.571
:VOL  : UNIT CELL VOLUME =     530.28024
       MODE OF CALCULATION IS       = RELA
       NON-SPINPOLARIZED CALCULATION
:IFFT  : FFT-parameters:   60   60   80 Factor: 2.00


   CONVERGENCE PARAMETER FOR PSEUDOCHARGE: NCON=  9
   MAXIMAL VALUE OF RMT(JATOM)*ABSK(NKK) : RK  =25.91023


:VKCOUL :  VK-COUL convergence: 0.230E-06
       ATOMNUMBER=  1 Fe         VCOUL-ZERO =  0.27310E+00
:EFG001:                        EFG         =     0.57949   *10**21  V / m**2
                               V20  TOT/SRF=     0.50185    -0.02234
                               V22  TOT/SRF=     0.00000     0.00000
                               V22M TOT/SRF=     0.00000     0.00000
                               V21  TOT/SRF=     0.00000     0.00000
                               V21M TOT/SRF=     0.00000     0.00000

             -0.28975    0.00000    0.00000       -0.28975    0.00000    0.00000
              0.00000   -0.28975    0.00000        0.00000   -0.28975    0.00000
              0.00000    0.00000    0.57949        0.00000    0.00000    0.57949

         MAIN DIRECTIONS OF THE EFG   1.0000  0.0000  0.0000
                                      0.0000  1.0000  0.0000
                                      0.0000  0.0000  1.0000
:ANG001:  ANGLE WITH OLD X-AXIS =         0.0

:ETA001:                         ASYMM. ETA =     0.00000


       ATOMNUMBER=  2 Se         VCOUL-ZERO =  0.86091E-01
:EFG002:                        EFG         =    -2.40571   *10**21  V / m**2
                               V20  TOT/SRF=    -2.08341     0.01589
                               V22  TOT/SRF=     0.00000     0.00000
                               V22M TOT/SRF=     0.00000     0.00000
                               V21  TOT/SRF=     0.00000     0.00000
                               V21M TOT/SRF=     0.00000     0.00000

              1.20286    0.00000    0.00000        1.20286    0.00000    0.00000
              0.00000    1.20286    0.00000        0.00000    1.20286    0.00000
              0.00000    0.00000   -2.40571        0.00000    0.00000   -2.40571

         MAIN DIRECTIONS OF THE EFG   1.0000  0.0000  0.0000
                                      0.0000  1.0000  0.0000
                                      0.0000  0.0000  1.0000
:ANG002:  ANGLE WITH OLD X-AXIS =         0.0

:ETA002:                         ASYMM. ETA =     0.00000


     HELLMANN-FEYNMAN-FORCE IN mRy/a.u. = |F|  Fx       Fy             Fz
:FHF001:   1.ATOM      0.000000000000      0.000000000000      0.000000000000      0.000000000000

     HELLMANN-FEYNMAN-FORCE IN mRy/a.u. = |F|  Fx       Fy             Fz
:FHF002:   2.ATOM   1192.276467696445      0.000000000000      0.000000000000   1192.276467696445

:FIT001: LUSE= 13 SIGMA OF V-XC FIT FOR ATOM  1  0.9964429E-03
:FIT001: LUSE= 13 SIGMA OF V-XC FIT FOR ATOM  1  0.9964429E-03
:FIT002: LUSE= 13 SIGMA OF V-XC FIT FOR ATOM  2  0.1926361E-03
:FIT002: LUSE= 13 SIGMA OF V-XC FIT FOR ATOM  2  0.1926361E-03
:DEN  : DENSITY INTEGRAL  =         -6220.20171615   (Ry)
       ELS_POTENTIAL_AT Z=0 and Z=0.5:  -0.70541   0.56888
       ELS_POTENTIAL_AT Y=0 and Y=0.5:   0.00000   0.00000
:VZERO:v0,v0c,v0x  -1.50096  -0.70541  -0.79555 v5,v5c,v5x  -0.02787   0.56888  -0.59676
:VZERY:v0,v0c,v0x  -0.72340   0.00000  -0.72340 v5,v5c,v5x  -0.72340   0.00000  -0.72340
:VZERX:v0,v0c,v0x   0.09096   0.78625  -0.69529 v5,v5c,v5x   0.09096   0.78625  -0.69529

------- case.scf1 --------
:LMAX-WF:   10   Non-Spherical LMAX:   4

          ATOMIC SPHERE DEPENDENT PARAMETERS FOR ATOM  Fe        
:e__0001: OVERALL ENERGY PARAMETER IS    0.1896
          OVERALL BASIS SET ON ATOM IS LAPW
:E1_0001: E( 1)=    0.1896
             APW+lo
:E1_0001: E( 1)=   -3.4806   E(BOTTOM)=   -3.571   E(TOP)=   -3.390  1  2   146
             LOCAL ORBITAL
:E2_0001: E( 2)=    0.3108   E(BOTTOM)=   -0.042   E(TOP)=    0.664  0  1   137
             APW+lo
:E0_0001: E( 0)=    0.1896
             APW+lo

          ATOMIC SPHERE DEPENDENT PARAMETERS FOR ATOM  Se        
:e__0002: OVERALL ENERGY PARAMETER IS    0.1896
          OVERALL BASIS SET ON ATOM IS LAPW
:E2_0002: E( 2)=    0.1896
             APW+lo
:E2_0002: E( 2)=   -3.1572   E(BOTTOM)=   -3.201   E(TOP)=   -3.114  0  1   138
             LOCAL ORBITAL
:E0_0002: E( 0)=    0.5896
             APW+lo
:E0_0002: E( 0)=   -1.0200   E(BOTTOM)=   -1.612   E(TOP)= -200.000  3 -1   183
             LOCAL ORBITAL
:E1_0002: E( 1)=    0.1896
             APW+lo

       K=   0.04545   0.04545   0.07143            1
:RKM  : MATRIX SIZE   582LOs:  54  RKM= 7.97  WEIGHT= 8.00  PGR:    
       EIGENVALUES ARE:
:EIG00001:      -3.4669186   -3.4667010   -3.4582578   -3.4582531   -3.4580387
:EIG00006:      -3.4563484   -3.1470864   -3.1470313   -3.1467801   -3.1467306
:EIG00011:      -3.1465006   -3.1464949   -3.1464760   -3.1464684   -3.1460594
:EIG00016:      -3.1460265   -0.6501252   -0.5540406   -0.0284787    0.1402355
:EIG00021:       0.1558981    0.1597762    0.1920259    0.1958124    0.2229500
:EIG00026:       0.3170398    0.3461859    0.3494997    0.3916473    0.4042525
:EIG00031:       0.4080559    0.4499967    0.5080818    0.5218780    0.5769038
:EIG00036:       0.7728575    0.8055157    0.8605200    0.8760324    0.9353776
:EIG00041:       1.1885037    1.2940524    1.3224698    1.3407330    1.3536550
:EIG00046:       1.4086084    1.4306923    1.4389484    1.4619635    1.5125772
 
:EIG00051:       1.5529065    1.5630143    1.6665046    1.6864734    1.8351013
       ********************************************************

:KPT   :      NUMBER OF K-POINTS:    84

------- case.scf2 --------
:GMA  : POTENTIAL AND CHARGE CUT-OFF  12.00 Ry**.5




:POS001: at.nr.  -1 position = 0.25000 0.75000 0.00000  multiplicity =  2

       lmmax  8
       lm=   0 0  2 0 -3 2  4 0  4 4 -5 2  6 0  6 4




:POS002: at.nr.  -2 position = 0.25000 0.75000 0.00000  multiplicity =  2

       lmmax 10
       lm=   0 0  1 0  2 0  3 0  4 0  4 4  5 0  5 4  6 0  6 4
:FER gutzwiller fermi energy   0.39248
:EORB          0.027168768
:SUM sum of gutz band energies       -101.142856067

:CHA001: total charge inside sphere   1 =    12.435182
:PCS001: partial charges sphere =  1 s,p,d,f,pz,pxy,,d-z2,d-xy,d-x2y2,d-xz,yz 
:QTL001: 0.2405 6.1991 5.9814 0.0117 2.0593 4.1398 0.0000 1.3412 1.2151 1.2001 2.2251 0.0000
:VZZ001: efg inside sphere   1 =     0.607878      up to r =   2.16000

:CHA002: total charge inside sphere   2 =    13.353492
:PCS002: partial charges sphere =  2 s,p,d,f,pz,pxy,,d-z2,d-xy,d-x2y2,d-xz,yz 
:QTL002: 1.3716 1.957410.0173 0.0061 0.6623 1.2950 0.0000 2.0034 2.0021 2.0024 4.0094 0.0000
:VZZ002: efg inside sphere   2 =    -2.431666      up to r =   2.05000

:CHA  : total charge inside unit cell =      60.000000

------- case.scfc --------

        1.ATOM      Fe                    5 CORE STATES
:1S 001: 1S                -512.216988521 Ry
:2S 001: 2S                 -59.144769296 Ry
:2PP001: 2P*                -50.947296634 Ry
:2P 001: 2P                 -50.032054563 Ry
:3S 001: 3S                  -5.923514041 Ry

        2.ATOM      Se                    7 CORE STATES
       CORE-FORCE in mRy/a.u. = |F|      Fx             Fy             Fz
:FCO002:   2.ATOM   1080.793105277100      0.000000000000      0.000000000000  -1080.793105277100

:1S 002: 1S                -916.460394245 Ry
:2S 002: 2S                -117.119251171 Ry
:2PP002: 2P*               -105.094655056 Ry
:2P 002: 2P                -102.031386408 Ry
:3S 002: 3S                 -14.848945729 Ry
:3PP002: 3P*                -10.736045628 Ry
:3P 002: 3P                 -10.303539627 Ry

------- case.scfm --------
:CINT001 Core Integral Atom   1   11.997217
:CINT002 Core Integral Atom   2   17.999415

       DENSITY AT NUCLEUS
        JATOM        VALENCE       SEMI-CORE          CORE           TOTAL
:RTO001:   1        5.340930        0.000000    14798.128326    14803.469257
:RTO002:   2       56.904339        0.000000    38924.792144    38981.696483
     
       CHARGES OF NEW CHARGE DENSITY
:NTO   : INTERSTITIAL CHARGE =     8.422608
:NPC   : PW Pseudocharge     =    13.290402
:NTO001: CHARGE SPHERE  1    =    24.432399
:NTO002: CHARGE SPHERE  2    =    31.352907

:NEC01: NUCLEAR AND ELECTRONIC CHARGE    120.00000   119.99322
     
       CHARGES OF OLD CHARGE DENSITY
:OTO   : INTERSTITIAL CHARGE =     8.428686
:OPC   : PW Pseudocharge     =    13.300718
:OTO001: CHARGE SPHERE  1    =    24.432846
:OTO002: CHARGE SPHERE  2    =    31.352811

:NEC02: NUCLEAR AND ELECTRONIC CHARGE    120.00000   120.00000
     
       CONVERGENCE TEST
:DTO001: DIFFERENCE IN SPHERE  1 =  0.0005277
:DTO002: DIFFERENCE IN SPHERE  2 =  0.0001140

:DIS  :  CHARGE DISTANCE       ( 0.0005277 for atom    1 spin 1)      0.0003208
 PW Mixed is          365
 
******************************************************
* MULTISECANT MIXING VER9 RELEASE 10.4.0              *
* Standard Mode with controls                        *
* Fixed density scale                                *
* Regularization       1.000E-04                     *
* Trust Upper Limit    5.000E+00                     *
* Max Number of Memory Steps    8                    *
******************************************************
 
:PWTMP   3.7368E+02  3.2249E+02  5.3028E+02
:PLANE:  PW TOTAL      3.6162 DISTAN   2.82E-04  7.79E-03 %
:CHARG:  CLM/ATOM    303.3341 DISTAN   4.21E-04  1.39E-04 %
 
Step History
        DMIX         DMIXT        Red     Pred      Trust     Lambda    MagRel    MagAbs     Beta
  1   3.5000E-02   3.5000E-02 -1.00E+00  1.00E+00 -1.00E+01  1.00E+00  3.50E-02  3.50E-02  1.00E+00
  2   2.5000E-02   2.5000E-02  9.05E-01  1.00E+00 -1.00E+01  1.00E+00  2.50E-02  4.47E-03  1.00E+00
  3   2.0000E-02   2.0000E-02  8.91E-01  9.21E-01  4.49E-01  3.89E-01  3.51E-01  5.67E-02  1.00E+00
  4   5.0000E-02   5.0000E-02  3.88E-01  5.76E-01  5.04E-01  1.49E+00  4.74E-01  6.84E-02  8.00E-01
  5   9.0812E-02   9.0812E-02  6.46E-01  7.59E-01  6.72E-01  3.85E-01  5.14E-01  2.88E-02  1.00E+00
  6   2.0697E-01   2.0697E-01  3.81E-01  7.35E-01  8.96E-01  1.00E+00  4.96E-01  1.79E-02  9.98E-01
  7   2.9019E-01   2.9019E-01  4.09E-01  4.36E-01  1.19E+00  1.16E+00  7.73E-01  1.06E-02  1.00E+00
  8   3.5000E-01   3.5000E-01  1.74E-01  2.55E-01  1.59E+00  1.50E+00  5.59E-01  3.15E-03  1.00E+00
  9   1.9322E-01   1.9322E-01 -1.00E+00  8.06E-01  3.43E+00  1.00E+00  3.59E-01  3.51E-04  9.38E-01
:JACOBIANS    1.225E+00   2.023E+00
  
:NORMS:  1/Froebius, Min, Max, Used   0.7076E+00  0.5056E+00  0.9874E+00  0.7618E+00
:INFO :  Number of Memory Steps    8 Skipping    0
:INFO :  SLambda=    1.0615424787  Max    1.0615424787
:PREDicted Charge, CTotal, PW Trust    5.792E-04   7.189E-04   6.358E-04
:PREDicted DMix, Beta, BLim   7.8701E-01  2.4671E+00  2.6219E+00

Eigenvalues, unscaled except for SY+YY
   #     SY Real        SY Imag          SS             YY         SY+YY Real      SY+YY Imag
   1   3.208672E+00   0.000000E+00   2.669776E+00   4.600083E+00   7.883498E+00   0.000000E+00
   2   1.095313E+00   0.000000E+00   7.993457E-01   2.030281E+00   3.313081E+00   0.000000E+00
   3   3.752141E-01   0.000000E+00   3.083857E-01   9.371902E-01   1.319453E+00   0.000000E+00
   4   2.431796E-01   0.000000E+00   1.485411E-01   2.667499E-01   5.253426E-01   0.000000E+00
   5   1.088073E-01   0.000000E+00   7.882701E-02   1.566150E-01   2.895279E-01   0.000000E+00
   6   2.305917E-03   0.000000E+00   4.008077E-04   9.029320E-03   1.231036E-02   0.000000E+00
   7   2.748777E-08   0.000000E+00   3.316420E-06   5.112986E-05   5.751083E-07   0.000000E+00
   8   1.119189E-05   0.000000E+00   3.615510E-09   5.645577E-07   6.359745E-05   0.000000E+00
 
:INFO :  Singular value  7.885E+00 Weight  1.000E+00 Projection -1.454E-05
:INFO :  Singular value  3.328E+00 Weight  1.000E+00 Projection -1.187E-04
:INFO :  Singular value  1.327E+00 Weight  1.000E+00 Projection -4.090E-04
:INFO :  Singular value  5.246E-01 Weight  1.000E+00 Projection  8.037E-04
:INFO :  Singular value  2.876E-01 Weight  1.000E+00 Projection  1.476E-03
:INFO :  Singular value  1.228E-02 Weight  9.986E-01 Projection -4.573E-03
:INFO :  Singular value  6.360E-05 Weight  1.876E-02 Projection -5.499E-04
:INFO :  Singular value  5.751E-07 Weight  1.563E-06 Projection  1.098E-07
:RANK :  ACTIVE   6.02/8  =  75.22 % ; YY RANK   6.01/8  =  75.12 %
 
:BLIM :  VZERO Control Off
:TRUST:  Step 3.77E+00  Charge 2.46E-02 (e) CTO  8.19E-02 (e) PW  1.15E-01 (e)
:DIRM :  MEMORY  8/8  SCALE   1.000 RED  0.91 PRED  0.81 NEXT  0.59 
:TRAVE:  Charge 5.55E-04 (e) CTO  9.13E-04 (e) PW  2.09E-03 (e)
:DIRP :  |MSR1|= 2.412E-04 |PRATT|= 2.817E-04 ANGLE=  28.8 DEGREES
:DIRQ :  |MSR1|= 8.594E-04 |PRATT|= 8.429E-04 ANGLE=  20.8 DEGREES
:DIRT :  |MSR1|= 8.926E-04 |PRATT|= 8.888E-04 ANGLE=  21.7 DEGREES
:MIX  :   MSE1   REGULARIZATION:  4.60E-04 GREED: 0.32813  Newton 1.00  1.0044                
     
       CHARGES OF MIXED CHARGE DENSITY
:CTO   : INTERSTITIAL CHARGE =     8.429343
:CPC   : PW Pseudocharge     =    13.300905
:CTO001: CHARGE SPHERE  1    =    24.432410
:CTO002: CHARGE SPHERE  2    =    31.352918

:NEC03: NUCLEAR AND ELECTRONIC CHARGE    120.00000   120.00000

PW CHANGE     H    K    L      Current       Change    Residue
:PTO001:      0    0    0  4.09788012E-02  1.593E-06  2.049E-06
:PTO002:      0    0   -1  8.56568409E-03  1.282E-06  7.035E-07
:PTO004:     -1    0   -1 -8.70979573E-02 -2.667E-08 -2.926E-06
:PTO005:      0    0   -2 -7.68274414E-03  1.997E-07 -5.938E-07
:PTO006:     -1   -1    0 -2.14078369E-02 -2.550E-06 -4.227E-06
:PTO007:     -1   -1   -1  3.45896086E-02 -1.033E-06 -9.287E-07
:PTO008:     -1    0   -2  2.41651777E-02  7.651E-08  1.545E-06
:PTO009:     -1   -1   -2  2.29834030E-02  1.304E-07  1.277E-06
:PTO010:     -2    0    0 -1.30022251E-02  1.688E-06  8.059E-07
:PTO011:      0    0   -3  4.72099205E-03  1.293E-06  1.506E-06
:PTO012:     -2    0   -1  6.02400696E-03 -2.440E-07  2.623E-07
:PTO014:     -1    0   -3  4.33299629E-03 -2.101E-06 -1.081E-06

:ENE  : ********** TOTAL ENERGY IN Ry =       -14790.22068952

       TOTAL FORCE IN mRy/a.u. = |F|     Fx             Fy             Fz     with/without FOR in case.in2
:FOR001:   1.ATOM          0.000          0.000          0.000          0.000 partial forces
:FOR002:   2.ATOM        111.483          0.000          0.000        111.483 partial forces
       TOTAL FORCE WITH RESPECT TO GLOBAL CARTESIAN COORDINATES:
:FCA001:   1.ATOM                         0.000          0.000          0.000 partial forces
:FCA002:   2.ATOM                         0.000          0.000        111.483 partial forces
       TOTAL FORCE WITH RESPECT TO THE GLOBAL COORDINATE SYSTEM:
:FGL001:   1.ATOM                 0.000000000     0.000000000     0.000000000 partial forces
:FGL002:   2.ATOM                 0.000000000     0.000000000   111.483362419 partial forces
