
------- case.scf0 --------
 Flat Integration
 New Mode for Coulomb Integral
 Consistent 3/8+Simpson combinations
 Extension of core to zero
 LDM version in phi
 Fifth-order quadrature in outwin


            ---------
:ITE028: 28. ITERATION
            ---------

:NATO :    1 INDEPENDENT AND    1 TOTAL ATOMS IN UNITCELL
       SUBSTANCE: blebleble                                                   

       LATTICE                      = F   
:POT  : POTENTIAL OPTION EX_LDA EC_LDA VX_LDA VC_LDA
:LAT  : LATTICE CONSTANTS= 10.57986 10.57986 10.57986    1.571    1.571    1.571
:VOL  : UNIT CELL VOLUME =     296.06019
       MODE OF CALCULATION IS       = RELA
       NON-SPINPOLARIZED CALCULATION
:IFFT  : FFT-parameters:   90   90   90 Factor: 2.00


   CONVERGENCE PARAMETER FOR PSEUDOCHARGE: NCON=  9
   MAXIMAL VALUE OF RMT(JATOM)*ABSK(NKK) : RK  =29.98955


:VKCOUL :  VK-COUL convergence: 0.207E-06
       ATOMNUMBER=  1 Pr         VCOUL-ZERO =  0.77600E-01
:FIT001: LUSE= 13 SIGMA OF V-XC FIT FOR ATOM  1  0.3496031E-04
:FIT001: LUSE= 13 SIGMA OF V-XC FIT FOR ATOM  1  0.3496031E-04
:DEN  : DENSITY INTEGRAL  =         -7064.00385097   (Ry)
       ELS_POTENTIAL_AT Z=0 and Z=0.5:  -2.30264  -2.30264
       ELS_POTENTIAL_AT Y=0 and Y=0.5:   0.00000   0.00000
:VZERO:v0,v0c,v0x  -3.22196  -2.30264  -0.91932 v5,v5c,v5x  -3.22196  -2.30264  -0.91932
:VZERY:v0,v0c,v0x  -0.65229   0.00000  -0.65229 v5,v5c,v5x  -0.65229   0.00000  -0.65229
:VZERX:v0,v0c,v0x  -0.65229   0.00000  -0.65229 v5,v5c,v5x  -0.65229   0.00000  -0.65229

------- case.scf1 --------
:LMAX-WF:   10   Non-Spherical LMAX:   4

          ATOMIC SPHERE DEPENDENT PARAMETERS FOR ATOM  Pr        
:e__0001: OVERALL ENERGY PARAMETER IS    0.2429
          OVERALL BASIS SET ON ATOM IS LAPW
:E0_0001: E( 0)=    0.2429
             APW+lo
:E0_0001: E( 0)=   -2.2475   E(BOTTOM)=   -2.630   E(TOP)=   -1.865  4  5   150
             LOCAL ORBITAL
:E1_0001: E( 1)=    0.6429
             APW+lo
:E1_0001: E( 1)=   -0.8613   E(BOTTOM)=   -1.509   E(TOP)=   -0.213  3  4   165
             LOCAL ORBITAL
:E3_0001: E( 3)=    0.4373   E(BOTTOM)=    0.292   E(TOP)=    0.582  0  1   119
             APW+lo
:E2_0001: E( 2)=    0.2429   E(BOTTOM)=    0.065   E(TOP)= -200.000  2 -1    98
             APW+lo

       K=   0.00000   0.00000   0.00000            1
:RKM  : MATRIX SIZE   201LOs:  20  RKM= 8.40  WEIGHT= 1.00  PGR:    
       EIGENVALUES ARE:
:EIG00001:      -2.2019089   -0.8547349   -0.8547349   -0.8547349    0.1953188
:EIG00006:       0.4450415    0.4564905    0.4564905    0.4564905    0.4738858
:EIG00011:       0.4738858    0.4738858    0.5618913    0.5618913    0.5618913
:EIG00016:       0.6970683    0.6970683    1.0833853    1.2747753    1.2747753
:EIG00021:       1.2747753    1.3802386    1.8990715    1.8990715    1.8990715
:EIG00026:       1.9336127    1.9336127    1.9336127    2.1769278    2.1769278
:EIG00031:       2.4373094    2.6312572    2.6312572    2.6312572    3.0245536
:EIG00036:       3.0245536    3.2458412    3.2458412    3.2458412    3.2715145
:EIG00041:       3.2715145    3.2715145    3.4569525    3.4569525    3.4569525
:EIG00046:       3.6001885    3.6934489    3.6934489    3.6934489    3.7716768
 
:EIG00051:       3.7716768    3.7716768    3.7719709    3.7719709    3.7719709
:EIG00056:       3.7845191    3.7845191    3.8659988    3.9567774    4.0834005
:EIG00061:       4.0834005    4.0834005    4.1220927    4.1220927    4.1220927
:EIG00066:       4.2656102    5.2472568    5.2472568    5.2769968    5.4903815
:EIG00071:       5.4903815    5.4903815    5.8421018    5.8421018    5.9814261
:EIG00076:       5.9814261    5.9814261    6.0759397    6.0759397    6.0759397
:EIG00081:       6.3774701    6.3774701    6.3774701    6.4298148    6.4298148
:EIG00086:       6.4298148    6.4818203    6.4818203    6.5226869    6.5226869
:EIG00091:       6.5226869    6.6194101    6.6194101    6.6194101    6.6233603
:EIG00096:       6.6233603    6.6233603    6.6578292    6.7751690    6.7751690
 
:EIG00101:       6.7924886    6.8734771    6.8734771    6.8734771    6.9065356
:EIG00106:       6.9065356    6.9065356    6.9065458    6.9065458    6.9065458
:EIG00111:       6.9654837    6.9654837    7.1322545    7.1743696    7.4494524
:EIG00116:       7.4494524    7.4494524    7.7253113    7.7253113    7.7253113
       ********************************************************

:KPT   :      NUMBER OF K-POINTS:   165

------- case.scfso --------
   0.0   0.0 angle (M,z), angle (M,x) deg
 
        SPIN-ORBIT EIGENVALUES:
     K=   0.00000   0.00000   0.00000            1
      MATRIX SIZE=  240   WEIGHT= 1.00
     EIGENVALUES ARE:
          -2.2019089   -2.2019089   -0.9994054   -0.9994054   -0.7870337
          -0.7870337   -0.7870337   -0.7870337    0.1953188    0.1953188
           0.4390453    0.4390453    0.4448014    0.4448014    0.4448014
           0.4448014    0.4681483    0.4681483    0.4756914    0.4756914
           0.4817478    0.4817478    0.4817478    0.4817478    0.5582497
           0.5582497    0.5582497    0.5582497    0.5679146    0.5679146
           0.6974913    0.6974913    0.6974913    0.6974913    1.0834333
           1.0834333    1.2690877    1.2690877    1.2773209    1.2773209

           1.2773209    1.2773209    1.3802386    1.3802386    1.8704799
           1.8704799    1.8944242    1.8944242    1.8944242    1.8944242
           1.9078879    1.9078879    1.9661845    1.9661845    1.9661845
           1.9661845    2.1772059    2.1772059    2.1772059    2.1772059
           2.4373094    2.4373094    2.6308236    2.6308236    2.6314883
           2.6314883    2.6314883    2.6314883    3.0245335    3.0245335
           3.0245335    3.0245335    3.2445986    3.2445986    3.2445986
           3.2445986    3.2454188    3.2454188    3.2485461    3.2485461

           3.2856800    3.2856800    3.2856800    3.2856800    3.4569465
           3.4569465    3.4569555    3.4569555    3.4569555    3.4569555
           3.6001885    3.6001885    3.6934143    3.6934143    3.6934143
           3.6934143    3.6935219    3.6935219    3.7709513    3.7709513
           3.7709513    3.7709513    3.7718268    3.7718268    3.7724032
           3.7724032    3.7724032    3.7724032    3.7724210    3.7724210
           3.7845191    3.7845191    3.7845191    3.7845191    3.8660079
           3.8660079    3.9567774    3.9567774    4.0833442    4.0833442

           4.0833442    4.0833442    4.0835165    4.0835165    4.1212868
           4.1212868    4.1225382    4.1225382    4.1225382    4.1225382
           4.2656134    4.2656134
       ********************************************************

------- case.scf2 --------
:GMA  : POTENTIAL AND CHARGE CUT-OFF  12.00 Ry**.5




:POS001: at.nr.   1 position = 0.00000 0.00000 0.50000  multiplicity =  1

       lmmax  5
       lm=   0 0  4 0  4 4  6 0  6 4
:FER gutzwiller fermi energy   0.45527
:EORB         -0.074912515
:SUM sum of gutz band energies         -7.583718867

:CHA001: total charge inside sphere   1 =    10.033437
:PCS001: partial charges sphere =  1 s,p,d,f,      d-eg,d-t2g 
:QTL001: 2.0210 5.3633 0.5382 2.1108 0.0000 0.0000 0.0000 0.1926 0.3456 0.0000 0.0000 0.0000

:CHA  : total charge inside unit cell =       6.499995

------- case.scfc --------

        1.ATOM      Pr                   14 CORE STATES
:1S 001: 1S               -3067.151344463 Ry
:2S 001: 2S                -492.899678827 Ry
:2PP001: 2P*               -465.999988515 Ry
:2P 001: 2P                -430.602066916 Ry
:3S 001: 3S                -105.979419590 Ry
:3PP001: 3P*                -94.517755172 Ry
:3P 001: 3P                 -87.509541022 Ry
:3DD001: 3D*                -67.437910453 Ry
:3D 001: 3D                 -65.926182065 Ry
:4S 001: 4S                 -20.660972569 Ry
:4PP001: 4P*                -16.368599588 Ry
:4P 001: 4P                 -14.842294030 Ry
:4DD001: 4D*                 -7.777594487 Ry
:4D 001: 4D                  -7.508590867 Ry

------- case.scfm --------
:CINT001 Core Integral Atom   1   45.999509

       DENSITY AT NUCLEUS
        JATOM        VALENCE       SEMI-CORE          CORE           TOTAL
:RTO001:   1      645.905395        0.000000   656824.448289   657470.353685
 :WARNING: K-list has changed
     
       CHARGES OF NEW CHARGE DENSITY
:NTO   : INTERSTITIAL CHARGE =     2.966614
:NPC   : PW Pseudocharge     =     7.494466
:NTO001: CHARGE SPHERE  1    =    56.032946

:NEC01: NUCLEAR AND ELECTRONIC CHARGE     59.00000    58.99956
     
       CHARGES OF OLD CHARGE DENSITY
:OTO   : INTERSTITIAL CHARGE =     2.970452
:OPC   : PW Pseudocharge     =     7.492811
:OTO001: CHARGE SPHERE  1    =    56.029548

:NEC02: NUCLEAR AND ELECTRONIC CHARGE     59.00000    59.00000
     
       CONVERGENCE TEST
:DTO001: DIFFERENCE IN SPHERE  1 =  0.0158523

:DIS  :  CHARGE DISTANCE       ( 0.0158523 for atom    1 spin 1)      0.0158523
 PW Mixed is           60
 
******************************************************
* MULTISECANT MIXING VER9 RELEASE 10.4.0              *
* Standard Mode with controls                        *
* Fixed density scale                                *
* Regularization       1.000E-04                     *
* Trust Upper Limit    5.000E+00                     *
* Max Number of Memory Steps    8                    *
******************************************************
 
:PWTMP   2.3061E+02  1.2500E+02  2.9606E+02
:PLANE:  PW TOTAL      2.6827 DISTAN   1.26E-02  4.71E-01 %
:CHARG:  CLM/ATOM    977.1730 DISTAN   4.43E-01  4.53E-02 %
 
Step History
        DMIX         DMIXT        Red     Pred      Trust     Lambda    MagRel    MagAbs     Beta
  1   3.5000E-02   3.5000E-02 -1.00E+00  1.00E+00 -1.00E+01  1.00E+00  3.50E-02  3.50E-02  1.00E+00
:INFO :  Note, Pratt in use
:TRUST:  Step 3.75E-02  Charge 7.50E-02 (e) CTO  2.50E-01 (e) PW  3.50E-01 (e)
:DIRM :  MEMORY  0/ 8 SCALE   1.000
Performing Pseudo Compensation
Final Pseudo Compensation Rescaling     1.00000E+00
:MIX  :   PRATT  REGULARIZATION:  1.00E-04 GREED: 0.02500                  
     
       CHARGES OF MIXED CHARGE DENSITY
:CTO   : INTERSTITIAL CHARGE =     2.970367
:CPC   : PW Pseudocharge     =     7.492708
:CTO001: CHARGE SPHERE  1    =    56.029633

:NEC03: NUCLEAR AND ELECTRONIC CHARGE     59.00000    59.00000

PW CHANGE     H    K    L      Current       Change    Residue
:PTO001:      0    0    0  3.53410423E-02 -6.331E-07 -2.131E-06
:PTO002:     -1   -1   -1 -1.19413497E-01  4.764E-05  5.924E-05
:PTO003:      0    0   -2  7.25463132E-02 -4.013E-05  9.684E-05
:PTO004:      0   -2   -2  6.83886034E-02 -1.372E-04 -3.176E-04
:PTO005:     -1   -1   -3 -7.17833470E-02  2.986E-04  2.350E-04
:PTO006:     -2   -2   -2  1.90689695E-02 -9.631E-05  1.382E-04
:PTO007:      0    0   -4  4.67297814E-03 -7.695E-05 -3.679E-06
:PTO008:     -1   -3   -3 -6.64922601E-03  3.143E-04  6.054E-04
:PTO009:      0   -2   -4  3.28229525E-03 -3.124E-04 -7.203E-04
:PTO010:     -2   -2   -4 -4.37274653E-03 -2.712E-04 -1.060E-04
:PTO011:     -3   -3   -3  2.28259401E-03  7.740E-05 -1.652E-04
:PTO012:     -1   -1   -5  6.55313257E-03  2.496E-04  1.989E-04

:ENE  : ********** TOTAL ENERGY IN Ry =       -18472.10426502


------- case.scf0 --------
 Flat Integration
 New Mode for Coulomb Integral
 Consistent 3/8+Simpson combinations
 Extension of core to zero
 LDM version in phi
 Fifth-order quadrature in outwin


            ---------
:ITE029: 29. ITERATION
            ---------

:NATO :    1 INDEPENDENT AND    1 TOTAL ATOMS IN UNITCELL
       SUBSTANCE: blebleble                                                   

       LATTICE                      = F   
:POT  : POTENTIAL OPTION EX_LDA EC_LDA VX_LDA VC_LDA
:LAT  : LATTICE CONSTANTS= 10.57986 10.57986 10.57986    1.571    1.571    1.571
:VOL  : UNIT CELL VOLUME =     296.06019
       MODE OF CALCULATION IS       = RELA
       NON-SPINPOLARIZED CALCULATION
:IFFT  : FFT-parameters:   90   90   90 Factor: 2.00


   CONVERGENCE PARAMETER FOR PSEUDOCHARGE: NCON=  9
   MAXIMAL VALUE OF RMT(JATOM)*ABSK(NKK) : RK  =29.98955


:VKCOUL :  VK-COUL convergence: 0.202E-06
       ATOMNUMBER=  1 Pr         VCOUL-ZERO =  0.77751E-01
:FIT001: LUSE= 13 SIGMA OF V-XC FIT FOR ATOM  1  0.3403047E-04
:FIT001: LUSE= 13 SIGMA OF V-XC FIT FOR ATOM  1  0.3403047E-04
:DEN  : DENSITY INTEGRAL  =         -7064.03178979   (Ry)
       ELS_POTENTIAL_AT Z=0 and Z=0.5:  -2.30370  -2.30370
       ELS_POTENTIAL_AT Y=0 and Y=0.5:   0.00000   0.00000
:VZERO:v0,v0c,v0x  -3.22290  -2.30370  -0.91920 v5,v5c,v5x  -3.22290  -2.30370  -0.91920
:VZERY:v0,v0c,v0x  -0.65230   0.00000  -0.65230 v5,v5c,v5x  -0.65230   0.00000  -0.65230
:VZERX:v0,v0c,v0x  -0.65230   0.00000  -0.65230 v5,v5c,v5x  -0.65230   0.00000  -0.65230

------- case.scf1 --------
:LMAX-WF:   10   Non-Spherical LMAX:   4

          ATOMIC SPHERE DEPENDENT PARAMETERS FOR ATOM  Pr        
:e__0001: OVERALL ENERGY PARAMETER IS    0.2429
          OVERALL BASIS SET ON ATOM IS LAPW
:E0_0001: E( 0)=    0.2429
             APW+lo
:E0_0001: E( 0)=   -2.2472   E(BOTTOM)=   -2.630   E(TOP)=   -1.865  4  5   160
             LOCAL ORBITAL
:E1_0001: E( 1)=    0.6429
             APW+lo
:E1_0001: E( 1)=   -0.8610   E(BOTTOM)=   -1.509   E(TOP)=   -0.213  3  4   162
             LOCAL ORBITAL
:E3_0001: E( 3)=    0.4376   E(BOTTOM)=    0.293   E(TOP)=    0.582  0  1   120
             APW+lo
:E2_0001: E( 2)=    0.2429   E(BOTTOM)=    0.065   E(TOP)= -200.000  2 -1    94
             APW+lo

       K=   0.00000   0.00000   0.00000            1
:RKM  : MATRIX SIZE   201LOs:  20  RKM= 8.40  WEIGHT= 1.00  PGR:    
       EIGENVALUES ARE:
:EIG00001:      -2.2016650   -0.8545107   -0.8545107   -0.8545107    0.1954779
:EIG00006:       0.4453485    0.4568248    0.4568248    0.4568248    0.4742299
:EIG00011:       0.4742299    0.4742299    0.5620623    0.5620623    0.5620623
:EIG00016:       0.6972550    0.6972550    1.0835589    1.2749476    1.2749476
:EIG00021:       1.2749476    1.3803955    1.8992540    1.8992540    1.8992540
:EIG00026:       1.9337924    1.9337924    1.9337924    2.1770948    2.1770948
:EIG00031:       2.4374852    2.6314195    2.6314195    2.6314195    3.0247326
:EIG00036:       3.0247326    3.2460133    3.2460133    3.2460133    3.2716774
:EIG00041:       3.2716774    3.2716774    3.4571158    3.4571158    3.4571158
:EIG00046:       3.6003579    3.6935955    3.6935955    3.6935955    3.7718460
 
:EIG00051:       3.7718460    3.7718460    3.7721142    3.7721142    3.7721142
:EIG00056:       3.7846654    3.7846654    3.8661576    3.9569402    4.0835539
:EIG00061:       4.0835539    4.0835539    4.1222450    4.1222450    4.1222450
:EIG00066:       4.2657671    5.2474274    5.2474274    5.2771607    5.4905465
:EIG00071:       5.4905465    5.4905465    5.8422929    5.8422929    5.9816335
:EIG00076:       5.9816335    5.9816335    6.0761185    6.0761185    6.0761185
:EIG00081:       6.3776469    6.3776469    6.3776469    6.4299785    6.4299785
:EIG00086:       6.4299785    6.4819727    6.4819727    6.5228443    6.5228443
:EIG00091:       6.5228443    6.6195741    6.6195741    6.6195741    6.6235174
:EIG00096:       6.6235174    6.6235174    6.6580027    6.7753460    6.7753460
 
:EIG00101:       6.7926357    6.8736331    6.8736331    6.8736331    6.9066850
:EIG00106:       6.9066850    6.9066850    6.9067059    6.9067059    6.9067059
:EIG00111:       6.9656374    6.9656374    7.1323985    7.1745495    7.4495990
:EIG00116:       7.4495990    7.4495990    7.7254589    7.7254589    7.7254589
       ********************************************************

:KPT   :      NUMBER OF K-POINTS:   165

------- case.scfso --------
   0.0   0.0 angle (M,z), angle (M,x) deg
 
        SPIN-ORBIT EIGENVALUES:
     K=   0.00000   0.00000   0.00000            1
      MATRIX SIZE=  240   WEIGHT= 1.00
     EIGENVALUES ARE:
          -2.2016650   -2.2016650   -0.9991771   -0.9991771   -0.7868115
          -0.7868115   -0.7868115   -0.7868115    0.1954779    0.1954779
           0.4393594    0.4393594    0.4451385    0.4451385    0.4451385
           0.4451385    0.4684814    0.4684814    0.4760287    0.4760287
           0.4820895    0.4820895    0.4820895    0.4820895    0.5584211
           0.5584211    0.5584211    0.5584211    0.5680851    0.5680851
           0.6976779    0.6976779    0.6976779    0.6976779    1.0836069
           1.0836069    1.2692608    1.2692608    1.2774929    1.2774929

           1.2774929    1.2774929    1.3803955    1.3803955    1.8706596
           1.8706596    1.8946068    1.8946068    1.8946068    1.8946068
           1.9080701    1.9080701    1.9663641    1.9663641    1.9663641
           1.9663641    2.1773729    2.1773729    2.1773729    2.1773729
           2.4374852    2.4374852    2.6309858    2.6309858    2.6316506
           2.6316506    2.6316506    2.6316506    3.0247124    3.0247124
           3.0247124    3.0247124    3.2447708    3.2447708    3.2447708
           3.2447708    3.2455813    3.2455813    3.2487181    3.2487181

           3.2858430    3.2858430    3.2858430    3.2858430    3.4571098
           3.4571098    3.4571188    3.4571188    3.4571188    3.4571188
           3.6003579    3.6003579    3.6935609    3.6935609    3.6935609
           3.6935609    3.6936685    3.6936685    3.7711139    3.7711139
           3.7711139    3.7711139    3.7719701    3.7719701    3.7725531
           3.7725531    3.7725531    3.7725531    3.7725903    3.7725903
           3.7846654    3.7846654    3.7846654    3.7846654    3.8661667
           3.8661667    3.9569402    3.9569402    4.0834976    4.0834976

           4.0834976    4.0834976    4.0836699    4.0836699    4.1214391
           4.1214391    4.1226904    4.1226904    4.1226904    4.1226904
           4.2657702    4.2657702
       ********************************************************

------- case.scf2 --------
:GMA  : POTENTIAL AND CHARGE CUT-OFF  12.00 Ry**.5




:POS001: at.nr.   1 position = 0.00000 0.00000 0.50000  multiplicity =  1

       lmmax  5
       lm=   0 0  4 0  4 4  6 0  6 4
:FER gutzwiller fermi energy   0.45616
:EORB         -0.076384622
:SUM sum of gutz band energies         -7.579290466

:CHA001: total charge inside sphere   1 =    10.023637
:PCS001: partial charges sphere =  1 s,p,d,f,      d-eg,d-t2g 
:QTL001: 2.0210 5.3637 0.5425 2.0962 0.0000 0.0000 0.0000 0.1940 0.3485 0.0000 0.0000 0.0000

:CHA  : total charge inside unit cell =       6.500001

------- case.scfc --------

        1.ATOM      Pr                   14 CORE STATES
:1S 001: 1S               -3067.150660512 Ry
:2S 001: 2S                -492.899019745 Ry
:2PP001: 2P*               -465.999323493 Ry
:2P 001: 2P                -430.601404104 Ry
:3S 001: 3S                -105.978828733 Ry
:3PP001: 3P*                -94.517160148 Ry
:3P 001: 3P                 -87.508951100 Ry
:3DD001: 3D*                -67.437308408 Ry
:3D 001: 3D                 -65.925581613 Ry
:4S 001: 4S                 -20.660531304 Ry
:4PP001: 4P*                -16.368164473 Ry
:4P 001: 4P                 -14.841869551 Ry
:4DD001: 4D*                 -7.777186010 Ry
:4D 001: 4D                  -7.508185785 Ry

------- case.scfm --------
:CINT001 Core Integral Atom   1   45.999509

       DENSITY AT NUCLEUS
        JATOM        VALENCE       SEMI-CORE          CORE           TOTAL
:RTO001:   1      645.904781        0.000000   656824.414316   657470.319096
     
       CHARGES OF NEW CHARGE DENSITY
:NTO   : INTERSTITIAL CHARGE =     2.976296
:NPC   : PW Pseudocharge     =     7.497610
:NTO001: CHARGE SPHERE  1    =    56.023147

:NEC01: NUCLEAR AND ELECTRONIC CHARGE     59.00000    58.99944
     
       CHARGES OF OLD CHARGE DENSITY
:OTO   : INTERSTITIAL CHARGE =     2.970367
:OPC   : PW Pseudocharge     =     7.492708
:OTO001: CHARGE SPHERE  1    =    56.029633

:NEC02: NUCLEAR AND ELECTRONIC CHARGE     59.00000    59.00000
     
       CONVERGENCE TEST
:DTO001: DIFFERENCE IN SPHERE  1 =  0.0116318

:DIS  :  CHARGE DISTANCE       ( 0.0116318 for atom    1 spin 1)      0.0116318
 PW Mixed is           60
 
******************************************************
* MULTISECANT MIXING VER9 RELEASE 10.4.0              *
* Slow Mode, cautious                                *
* Fixed density scale                                *
* Regularization       1.000E-04                     *
* Step Trust Radius    0.75000                       *
* Trust Upper Limit    2.000E+00                     *
* Max Number of Memory Steps   12                    *
******************************************************
 
:PWTMP   2.3061E+02  1.2500E+02  2.9606E+02
:PLANE:  PW TOTAL      2.6809 DISTAN   1.02E-02  3.79E-01 %
:CHARG:  CLM/ATOM    977.1731 DISTAN   4.33E-01  4.43E-02 %
 
Step History
        DMIX         DMIXT        Red     Pred      Trust     Lambda    MagRel    MagAbs     Beta
  1   3.5000E-02   3.5000E-02 -1.00E+00  1.00E+00 -1.00E+01  1.00E+00  3.50E-02  3.50E-02  1.00E+00
  2   2.5000E-02   2.5000E-02 -1.00E+00  1.00E+00 -1.00E+01  1.00E+00  2.50E-02  1.11E-02  1.00E+00
:JACOBIANS    5.742E-02   1.304E-01
  
:TRUST:  Step 2.98E-02  Charge 7.50E-02 (e) CTO  2.50E-01 (e) PW  3.50E-01 (e)
:DIRM :  MEMORY  1/12 SCALE   1.000
:MIX  :   PRATT  REGULARIZATION:  1.00E-04 GREED: 0.02983  Expand 1.19  0.0298                
     
       CHARGES OF MIXED CHARGE DENSITY
:CTO   : INTERSTITIAL CHARGE =     2.969558
:CPC   : PW Pseudocharge     =     7.491732
:CTO001: CHARGE SPHERE  1    =    56.030442

:NEC03: NUCLEAR AND ELECTRONIC CHARGE     59.00000    59.00000

PW CHANGE     H    K    L      Current       Change    Residue
:PTO001:      0    0    0  3.53350100E-02 -6.032E-06  4.321E-05
:PTO002:     -1   -1   -1 -1.18959546E-01  4.540E-04 -1.166E-06
:PTO003:      0    0   -2  7.21639036E-02 -3.824E-04  1.368E-04
:PTO004:      0   -2   -2  6.70809793E-02 -1.308E-03 -1.775E-04
:PTO005:     -1   -1   -3 -6.89384445E-02  2.845E-03 -5.187E-05
:PTO006:     -2   -2   -2  1.81512819E-02 -9.177E-04  2.347E-04
:PTO007:      0    0   -4  3.93973047E-03 -7.332E-04  6.839E-05
:PTO008:     -1   -3   -3 -3.65459098E-03  2.995E-03  2.975E-04
:PTO009:      0   -2   -4  3.05456575E-04 -2.977E-03 -4.195E-04
:PTO010:     -2   -2   -4 -6.95734969E-03 -2.585E-03  1.603E-04
:PTO011:     -3   -3   -3  3.02014717E-03  7.376E-04 -2.428E-04
:PTO012:     -1   -1   -5  8.93121968E-03  2.378E-03 -4.146E-05

:ENE  : ********** TOTAL ENERGY IN Ry =       -18472.10432277


------- case.scf0 --------
 Flat Integration
 New Mode for Coulomb Integral
 Consistent 3/8+Simpson combinations
 Extension of core to zero
 LDM version in phi
 Fifth-order quadrature in outwin


            ---------
:ITE030: 30. ITERATION
            ---------

:NATO :    1 INDEPENDENT AND    1 TOTAL ATOMS IN UNITCELL
       SUBSTANCE: blebleble                                                   

       LATTICE                      = F   
:POT  : POTENTIAL OPTION EX_LDA EC_LDA VX_LDA VC_LDA
:LAT  : LATTICE CONSTANTS= 10.57986 10.57986 10.57986    1.571    1.571    1.571
:VOL  : UNIT CELL VOLUME =     296.06019
       MODE OF CALCULATION IS       = RELA
       NON-SPINPOLARIZED CALCULATION
:IFFT  : FFT-parameters:   90   90   90 Factor: 2.00


   CONVERGENCE PARAMETER FOR PSEUDOCHARGE: NCON=  9
   MAXIMAL VALUE OF RMT(JATOM)*ABSK(NKK) : RK  =29.98955


:VKCOUL :  VK-COUL convergence: 0.158E-06
       ATOMNUMBER=  1 Pr         VCOUL-ZERO =  0.79188E-01
:FIT001: LUSE= 13 SIGMA OF V-XC FIT FOR ATOM  1  0.2588278E-04
:FIT001: LUSE= 13 SIGMA OF V-XC FIT FOR ATOM  1  0.2588278E-04
:DEN  : DENSITY INTEGRAL  =         -7064.29810126   (Ry)
       ELS_POTENTIAL_AT Z=0 and Z=0.5:  -2.31379  -2.31379
       ELS_POTENTIAL_AT Y=0 and Y=0.5:   0.00000   0.00000
:VZERO:v0,v0c,v0x  -3.23176  -2.31379  -0.91797 v5,v5c,v5x  -3.23176  -2.31379  -0.91797
:VZERY:v0,v0c,v0x  -0.65245   0.00000  -0.65245 v5,v5c,v5x  -0.65245   0.00000  -0.65245
:VZERX:v0,v0c,v0x  -0.65245   0.00000  -0.65245 v5,v5c,v5x  -0.65245   0.00000  -0.65245

------- case.scf1 --------
:LMAX-WF:   10   Non-Spherical LMAX:   4

          ATOMIC SPHERE DEPENDENT PARAMETERS FOR ATOM  Pr        
:e__0001: OVERALL ENERGY PARAMETER IS    0.2429
          OVERALL BASIS SET ON ATOM IS LAPW
:E0_0001: E( 0)=    0.2429
             APW+lo
:E0_0001: E( 0)=   -2.2449   E(BOTTOM)=   -2.628   E(TOP)=   -1.862  4  5   155
             LOCAL ORBITAL
:E1_0001: E( 1)=    0.6429
             APW+lo
:E1_0001: E( 1)=   -0.8588   E(BOTTOM)=   -1.507   E(TOP)=   -0.210  3  4   165
             LOCAL ORBITAL
:E3_0001: E( 3)=    0.4408   E(BOTTOM)=    0.296   E(TOP)=    0.586  0  1   114
             APW+lo
:E2_0001: E( 2)=    0.2429   E(BOTTOM)=    0.067   E(TOP)= -200.000  2 -1    95
             APW+lo

       K=   0.00000   0.00000   0.00000            1
:RKM  : MATRIX SIZE   201LOs:  20  RKM= 8.40  WEIGHT= 1.00  PGR:    
       EIGENVALUES ARE:
:EIG00001:      -2.1993384   -0.8523720   -0.8523720   -0.8523720    0.1969951
:EIG00006:       0.4482773    0.4600118    0.4600118    0.4600118    0.4775118
:EIG00011:       0.4775118    0.4775118    0.5636921    0.5636921    0.5636921
:EIG00016:       0.6990342    0.6990342    1.0852145    1.2765906    1.2765906
:EIG00021:       1.2765906    1.3818910    1.9009938    1.9009938    1.9009938
:EIG00026:       1.9355060    1.9355060    1.9355060    2.1786867    2.1786867
:EIG00031:       2.4391620    2.6329661    2.6329661    2.6329661    3.0264383
:EIG00036:       3.0264383    3.2476546    3.2476546    3.2476546    3.2732298
:EIG00041:       3.2732298    3.2732298    3.4586726    3.4586726    3.4586726
:EIG00046:       3.6019724    3.6949930    3.6949930    3.6949930    3.7734590
 
:EIG00051:       3.7734590    3.7734590    3.7734802    3.7734802    3.7734802
:EIG00056:       3.7860602    3.7860602    3.8676718    3.9584928    4.0850163
:EIG00061:       4.0850163    4.0850163    4.1236960    4.1236960    4.1236960
:EIG00066:       4.2672623    5.2490534    5.2490534    5.2787234    5.4921194
:EIG00071:       5.4921194    5.4921194    5.8441145    5.8441145    5.9836109
:EIG00076:       5.9836109    5.9836109    6.0778241    6.0778241    6.0778241
:EIG00081:       6.3793323    6.3793323    6.3793323    6.4315383    6.4315383
:EIG00086:       6.4315383    6.4834258    6.4834258    6.5243445    6.5243445
:EIG00091:       6.5243445    6.6211365    6.6211365    6.6211365    6.6250147
:EIG00096:       6.6250147    6.6250147    6.6596567    6.7770343    6.7770343
 
:EIG00101:       6.7940372    6.8751204    6.8751204    6.8751204    6.9081097
:EIG00106:       6.9081097    6.9081097    6.9082322    6.9082322    6.9082322
:EIG00111:       6.9671021    6.9671021    7.1337707    7.1762650    7.4509965
:EIG00116:       7.4509965    7.4509965    7.7268656    7.7268656    7.7268656
       ********************************************************

:KPT   :      NUMBER OF K-POINTS:   165

------- case.scfso --------
   0.0   0.0 angle (M,z), angle (M,x) deg
 
        SPIN-ORBIT EIGENVALUES:
     K=   0.00000   0.00000   0.00000            1
      MATRIX SIZE=  240   WEIGHT= 1.00
     EIGENVALUES ARE:
          -2.1993384   -2.1993384   -0.9969986   -0.9969986   -0.7846917
          -0.7846917   -0.7846917   -0.7846917    0.1969951    0.1969951
           0.4423552    0.4423552    0.4483530    0.4483530    0.4483530
           0.4483530    0.4716569    0.4716569    0.4792461    0.4792461
           0.4853482    0.4853482    0.4853482    0.4853482    0.5600545
           0.5600545    0.5600545    0.5600545    0.5697105    0.5697105
           0.6994559    0.6994559    0.6994559    0.6994559    1.0852628
           1.0852628    1.2709106    1.2709106    1.2791328    1.2791328

           1.2791328    1.2791328    1.3818910    1.3818910    1.8723740
           1.8723740    1.8963477    1.8963477    1.8963477    1.8963477
           1.9098076    1.9098076    1.9680769    1.9680769    1.9680769
           1.9680769    2.1789647    2.1789647    2.1789647    2.1789647
           2.4391620    2.4391620    2.6325318    2.6325318    2.6331975
           2.6331975    2.6331975    2.6331975    3.0264182    3.0264182
           3.0264182    3.0264182    3.2464125    3.2464125    3.2464125
           3.2464125    3.2471310    3.2471310    3.2503585    3.2503585

           3.2873971    3.2873971    3.2873971    3.2873971    3.4586667
           3.4586667    3.4586756    3.4586756    3.4586756    3.4586756
           3.6019724    3.6019724    3.6949585    3.6949585    3.6949585
           3.6949585    3.6950659    3.6950659    3.7726544    3.7726544
           3.7726544    3.7726544    3.7733359    3.7733359    3.7739913
           3.7739913    3.7739913    3.7739913    3.7742041    3.7742041
           3.7860602    3.7860602    3.7860602    3.7860602    3.8676809
           3.8676809    3.9584928    3.9584928    4.0849600    4.0849600

           4.0849600    4.0849600    4.0851322    4.0851322    4.1228909
           4.1228909    4.1241410    4.1241410    4.1241410    4.1241410
           4.2672655    4.2672655
       ********************************************************

------- case.scf2 --------
:GMA  : POTENTIAL AND CHARGE CUT-OFF  12.00 Ry**.5




:POS001: at.nr.   1 position = 0.00000 0.00000 0.50000  multiplicity =  1

       lmmax  5
       lm=   0 0  4 0  4 4  6 0  6 4
:FER gutzwiller fermi energy   0.45910
:EORB         -0.076129184
:SUM sum of gutz band energies         -7.550683273

:CHA001: total charge inside sphere   1 =    10.005353
:PCS001: partial charges sphere =  1 s,p,d,f,      d-eg,d-t2g 
:QTL001: 2.0210 5.3641 0.5502 2.0698 0.0000 0.0000 0.0000 0.1965 0.3537 0.0000 0.0000 0.0000

:CHA  : total charge inside unit cell =       6.500002

------- case.scfc --------

        1.ATOM      Pr                   14 CORE STATES
:1S 001: 1S               -3067.144143392 Ry
:2S 001: 2S                -492.892739583 Ry
:2PP001: 2P*               -465.992986733 Ry
:2P 001: 2P                -430.595088404 Ry
:3S 001: 3S                -105.973198294 Ry
:3PP001: 3P*                -94.511490045 Ry
:3P 001: 3P                 -87.503329544 Ry
:3DD001: 3D*                -67.431571450 Ry
:3D 001: 3D                 -65.919859818 Ry
:4S 001: 4S                 -20.656324019 Ry
:4PP001: 4P*                -16.364015704 Ry
:4P 001: 4P                 -14.837821996 Ry
:4DD001: 4D*                 -7.773290770 Ry
:4D 001: 4D                  -7.504322848 Ry

------- case.scfm --------
:CINT001 Core Integral Atom   1   45.999508

       DENSITY AT NUCLEUS
        JATOM        VALENCE       SEMI-CORE          CORE           TOTAL
:RTO001:   1      645.803449        0.000000   656824.090973   657469.894422
     
       CHARGES OF NEW CHARGE DENSITY
:NTO   : INTERSTITIAL CHARGE =     2.994750
:NPC   : PW Pseudocharge     =     7.503947
:NTO001: CHARGE SPHERE  1    =    56.004861

:NEC01: NUCLEAR AND ELECTRONIC CHARGE     59.00000    58.99961
     
       CHARGES OF OLD CHARGE DENSITY
:OTO   : INTERSTITIAL CHARGE =     2.969558
:OPC   : PW Pseudocharge     =     7.491732
:OTO001: CHARGE SPHERE  1    =    56.030442

:NEC02: NUCLEAR AND ELECTRONIC CHARGE     59.00000    59.00000
     
       CONVERGENCE TEST
:DTO001: DIFFERENCE IN SPHERE  1 =  0.0396039

:DIS  :  CHARGE DISTANCE       ( 0.0396039 for atom    1 spin 1)      0.0396039
 PW Mixed is           60
 
******************************************************
* MULTISECANT MIXING VER9 RELEASE 10.4.0              *
* Slow Mode, cautious                                *
* Fixed density scale                                *
* Regularization       1.000E-04                     *
* Step Trust Radius    0.75000                       *
* Trust Upper Limit    2.000E+00                     *
* Max Number of Memory Steps   12                    *
******************************************************
 
:PWTMP   2.3061E+02  1.2500E+02  2.9606E+02
:PLANE:  PW TOTAL      2.6654 DISTAN   6.57E-02  2.46E+00 %
:CHARG:  CLM/ATOM    977.1741 DISTAN   3.34E-01  3.41E-02 %
 
Step History
        DMIX         DMIXT        Red     Pred      Trust     Lambda    MagRel    MagAbs     Beta
  1   3.5000E-02   3.5000E-02 -1.00E+00  1.00E+00 -1.00E+01  1.00E+00  3.50E-02  3.50E-02  1.00E+00
  2   2.5000E-02   2.5000E-02  9.79E-01  1.00E+00 -1.00E+01  1.00E+00  2.50E-02  1.11E-02  1.00E+00
  3   2.9828E-02   2.9828E-02 -1.00E+00  1.00E+00 -1.00E+01  1.00E+00  2.98E-02  1.29E-02  1.00E+00
:JACOBIANS    1.703E-01   4.234E-01
  
:NORMS:  1/Froebius, Min, Max, Used   0.9771E+00  0.4998E+00  0.9997E+00  0.9781E+00
:INFO :  Number of Memory Steps    2 Skipping    0
:INFO :  SLambda=    0.9060938606  Max    0.9060938606
:PREDicted Charge, CTotal, PW Trust    2.449E-03   2.449E-03   2.281E-03
:PREDicted DMix, Beta, BLim   7.1203E-01  2.7729E+00  8.4358E-01

Eigenvalues, unscaled except for SY+YY
   #     SY Real        SY Imag          SS             YY         SY+YY Real      SY+YY Imag
   1  -3.619327E-14   0.000000E+00   1.909292E+00   1.995825E+00   4.309621E-03   0.000000E+00
   2   1.864033E+00   0.000000E+00   1.110223E-16   4.174799E-03   3.684679E+00   0.000000E+00
 
:INFO :  Singular value  3.685E+00 Weight  1.000E+00 Projection -1.667E-01
:INFO :  Singular value  4.310E-03 Weight  9.979E-01 Projection  1.961E+00
:RANK :  ACTIVE   2.00/2  =  99.89 % ; YY RANK   2.00/2  =  99.89 %
 
:BLIM :  VZERO Control Off
:TRUST:  Step 2.44E-01  Charge 7.50E-02 (e) CTO  2.50E-01 (e) PW  3.50E-01 (e)
:DTRUS:  Lambda    4.593E+00 Increment    7.276E-12 Iterations   123 DMIX    2.566E-02
:INFOA:  Angle SubSpace to MSR1      0.00
:DIRM :  MEMORY  2/12 SCALE   1.000 RED  0.78 PRED  1.00 NEXT  0.82 
:INFO :  Limited by Atoms F by Step T

:TRAVE:  Charge 7.52E-04 (e) CTO  7.52E-04 (e) PW  5.80E-04 (e)
:DIRP :  |MSR1|= 3.910E-02 |PRATT|= 6.568E-02 ANGLE= 169.9 DEGREES
:DIRQ :  |MSR1|= 7.337E-02 |PRATT|= 3.337E-01 ANGLE=   8.4 DEGREES
:DIRT :  |MSR1|= 8.314E-02 |PRATT|= 3.401E-01 ANGLE=  39.9 DEGREES
:MIX  :   MSD1   REGULARIZATION:  2.00E-04 GREED: 0.07457  LMStep 0.34  0.2445 Step           
     
       CHARGES OF MIXED CHARGE DENSITY
:CTO   : INTERSTITIAL CHARGE =     2.968806
:CPC   : PW Pseudocharge     =     7.491112
:CTO001: CHARGE SPHERE  1    =    56.031194

:NEC03: NUCLEAR AND ELECTRONIC CHARGE     59.00000    59.00000

PW CHANGE     H    K    L      Current       Change    Residue
:PTO001:      0    0    0  3.53303737E-02 -4.636E-06  1.310E-04
:PTO002:     -1   -1   -1 -1.18689699E-01  2.698E-04 -4.693E-04
:PTO003:      0    0   -2  7.19406766E-02 -2.232E-04  5.121E-04
:PTO004:      0   -2   -2  6.63024401E-02 -7.785E-04  1.126E-03
:PTO005:     -1   -1   -3 -6.72573766E-02  1.681E-03 -2.863E-03
:PTO006:     -2   -2   -2  1.76147530E-02 -5.365E-04  1.152E-03
:PTO007:      0    0   -4  3.50809401E-03 -4.316E-04  7.909E-04
:PTO008:     -1   -3   -3 -1.87676358E-03  1.778E-03 -2.683E-03
:PTO009:      0   -2   -4 -1.46488669E-03 -1.770E-03  2.532E-03
:PTO010:     -2   -2   -4 -8.48069409E-03 -1.523E-03  2.737E-03
:PTO011:     -3   -3   -3  3.44976526E-03  4.296E-04 -9.822E-04
:PTO012:     -1   -1   -5  1.03355176E-02  1.404E-03 -2.402E-03

:ENE  : ********** TOTAL ENERGY IN Ry =       -18472.10421391


------- case.scf0 --------
 Flat Integration
 New Mode for Coulomb Integral
 Consistent 3/8+Simpson combinations
 Extension of core to zero
 LDM version in phi
 Fifth-order quadrature in outwin


            ---------
:ITE031: 31. ITERATION
            ---------

:NATO :    1 INDEPENDENT AND    1 TOTAL ATOMS IN UNITCELL
       SUBSTANCE: blebleble                                                   

       LATTICE                      = F   
:POT  : POTENTIAL OPTION EX_LDA EC_LDA VX_LDA VC_LDA
:LAT  : LATTICE CONSTANTS= 10.57986 10.57986 10.57986    1.571    1.571    1.571
:VOL  : UNIT CELL VOLUME =     296.06019
       MODE OF CALCULATION IS       = RELA
       NON-SPINPOLARIZED CALCULATION
:IFFT  : FFT-parameters:   90   90   90 Factor: 2.00


   CONVERGENCE PARAMETER FOR PSEUDOCHARGE: NCON=  9
   MAXIMAL VALUE OF RMT(JATOM)*ABSK(NKK) : RK  =29.98955


:VKCOUL :  VK-COUL convergence: 0.127E-06
       ATOMNUMBER=  1 Pr         VCOUL-ZERO =  0.80044E-01
:FIT001: LUSE= 13 SIGMA OF V-XC FIT FOR ATOM  1  0.2098605E-04
:FIT001: LUSE= 13 SIGMA OF V-XC FIT FOR ATOM  1  0.2098605E-04
:DEN  : DENSITY INTEGRAL  =         -7064.48583899   (Ry)
       ELS_POTENTIAL_AT Z=0 and Z=0.5:  -2.31957  -2.31957
       ELS_POTENTIAL_AT Y=0 and Y=0.5:   0.00000   0.00000
:VZERO:v0,v0c,v0x  -3.23680  -2.31957  -0.91724 v5,v5c,v5x  -3.23680  -2.31957  -0.91724
:VZERY:v0,v0c,v0x  -0.65251   0.00000  -0.65251 v5,v5c,v5x  -0.65251   0.00000  -0.65251
:VZERX:v0,v0c,v0x  -0.65251   0.00000  -0.65251 v5,v5c,v5x  -0.65251   0.00000  -0.65251

------- case.scf1 --------
:LMAX-WF:   10   Non-Spherical LMAX:   4

          ATOMIC SPHERE DEPENDENT PARAMETERS FOR ATOM  Pr        
:e__0001: OVERALL ENERGY PARAMETER IS    0.2429
          OVERALL BASIS SET ON ATOM IS LAPW
:E0_0001: E( 0)=    0.2429
             APW+lo
:E0_0001: E( 0)=   -2.2433   E(BOTTOM)=   -2.626   E(TOP)=   -1.861  4  5   153
             LOCAL ORBITAL
:E1_0001: E( 1)=    0.6429
             APW+lo
:E1_0001: E( 1)=   -0.8573   E(BOTTOM)=   -1.506   E(TOP)=   -0.209  3  4   164
             LOCAL ORBITAL
:E3_0001: E( 3)=    0.4431   E(BOTTOM)=    0.298   E(TOP)=    0.588  0  1   122
             APW+lo
:E2_0001: E( 2)=    0.2429   E(BOTTOM)=    0.069   E(TOP)= -200.000  2 -1    94
             APW+lo

       K=   0.00000   0.00000   0.00000            1
:RKM  : MATRIX SIZE   201LOs:  20  RKM= 8.40  WEIGHT= 1.00  PGR:    
       EIGENVALUES ARE:
:EIG00001:      -2.1977497   -0.8509392   -0.8509392   -0.8509392    0.1978988
:EIG00006:       0.4503446    0.4622652    0.4622652    0.4622652    0.4798423
:EIG00011:       0.4798423    0.4798423    0.5647029    0.5647029    0.5647029
:EIG00016:       0.7001599    0.7001599    1.0862290    1.2775867    1.2775867
:EIG00021:       1.2775867    1.3827606    1.9020838    1.9020838    1.9020838
:EIG00026:       1.9365727    1.9365727    1.9365727    2.1796612    2.1796612
:EIG00031:       2.4401932    2.6338994    2.6338994    2.6338994    3.0274826
:EIG00036:       3.0274826    3.2486509    3.2486509    3.2486509    3.2741572
:EIG00041:       3.2741572    3.2741572    3.4596094    3.4596094    3.4596094
:EIG00046:       3.6029491    3.6958067    3.6958067    3.6958067    3.7742729
 
:EIG00051:       3.7742729    3.7742729    3.7744265    3.7744265    3.7744265
:EIG00056:       3.7868691    3.7868691    3.8685673    3.9594219    4.0858666
:EIG00061:       4.0858666    4.0858666    4.1245432    4.1245432    4.1245432
:EIG00066:       4.2681384    5.2500291    5.2500291    5.2796569    5.4930618
:EIG00071:       5.4930618    5.4930618    5.8452447    5.8452447    5.9848474
:EIG00076:       5.9848474    5.9848474    6.0788785    6.0788785    6.0788785
:EIG00081:       6.3803484    6.3803484    6.3803484    6.4324685    6.4324685
:EIG00086:       6.4324685    6.4842797    6.4842797    6.5252329    6.5252329
:EIG00091:       6.5252329    6.6220689    6.6220689    6.6220689    6.6259031
:EIG00096:       6.6259031    6.6259031    6.6606486    6.7780513    6.7780513
 
:EIG00101:       6.7948568    6.8759920    6.8759920    6.8759920    6.9089346
:EIG00106:       6.9089346    6.9089346    6.9091291    6.9091291    6.9091291
:EIG00111:       6.9679540    6.9679540    7.1345537    7.1773115    7.4517989
:EIG00116:       7.4517989    7.4517989    7.7276804    7.7276804    7.7276804
       ********************************************************

:KPT   :      NUMBER OF K-POINTS:   165

------- case.scfso --------
   0.0   0.0 angle (M,z), angle (M,x) deg
 
        SPIN-ORBIT EIGENVALUES:
     K=   0.00000   0.00000   0.00000            1
      MATRIX SIZE=  240   WEIGHT= 1.00
     EIGENVALUES ARE:
          -2.1977497   -2.1977497   -0.9955327   -0.9955327   -0.7832748
          -0.7832748   -0.7832748   -0.7832748    0.1978988    0.1978988
           0.4444722    0.4444722    0.4506281    0.4506281    0.4506281
           0.4506281    0.4739011    0.4739011    0.4815287    0.4815287
           0.4876602    0.4876602    0.4876602    0.4876602    0.5610683
           0.5610683    0.5610683    0.5610683    0.5707176    0.5707176
           0.7005806    0.7005806    0.7005806    0.7005806    1.0862776
           1.0862776    1.2719121    1.2719121    1.2801264    1.2801264

           1.2801264    1.2801264    1.3827606    1.3827606    1.8734411
           1.8734411    1.8974384    1.8974384    1.8974384    1.8974384
           1.9108962    1.9108962    1.9691428    1.9691428    1.9691428
           1.9691428    2.1799392    2.1799392    2.1799392    2.1799392
           2.4401932    2.4401932    2.6334645    2.6334645    2.6341311
           2.6341311    2.6341311    2.6341311    3.0274624    3.0274624
           3.0274624    3.0274624    3.2474090    3.2474090    3.2474090
           3.2474090    3.2480555    3.2480555    3.2513544    3.2513544

           3.2883261    3.2883261    3.2883261    3.2883261    3.4596034
           3.4596034    3.4596124    3.4596124    3.4596124    3.4596124
           3.6029491    3.6029491    3.6957723    3.6957723    3.6957723
           3.6957723    3.6958796    3.6958796    3.7735585    3.7735585
           3.7735585    3.7735585    3.7741284    3.7741284    3.7748471
           3.7748471    3.7748471    3.7748471    3.7751722    3.7751722
           3.7868691    3.7868691    3.7868691    3.7868691    3.8685765
           3.8685765    3.9594219    3.9594219    4.0858103    4.0858103

           4.0858103    4.0858103    4.0859825    4.0859825    4.1237386
           4.1237386    4.1249880    4.1249880    4.1249880    4.1249880
           4.2681416    4.2681416
       ********************************************************

------- case.scf2 --------
:GMA  : POTENTIAL AND CHARGE CUT-OFF  12.00 Ry**.5




:POS001: at.nr.   1 position = 0.00000 0.00000 0.50000  multiplicity =  1

       lmmax  5
       lm=   0 0  4 0  4 4  6 0  6 4
:FER gutzwiller fermi energy   0.46171
:EORB         -0.077593374
:SUM sum of gutz band energies         -7.530102065

:CHA001: total charge inside sphere   1 =     9.984537
:PCS001: partial charges sphere =  1 s,p,d,f,      d-eg,d-t2g 
:QTL001: 2.0211 5.3648 0.5593 2.0393 0.0000 0.0000 0.0000 0.1995 0.3598 0.0000 0.0000 0.0000

:CHA  : total charge inside unit cell =       6.500000

------- case.scfc --------

        1.ATOM      Pr                   14 CORE STATES
:1S 001: 1S               -3067.139638133 Ry
:2S 001: 2S                -492.888357298 Ry
:2PP001: 2P*               -465.988574430 Ry
:2P 001: 2P                -430.590687261 Ry
:3S 001: 3S                -105.969193363 Ry
:3PP001: 3P*                -94.507461346 Ry
:3P 001: 3P                 -87.499331252 Ry
:3DD001: 3D*                -67.427502701 Ry
:3D 001: 3D                 -65.915800318 Ry
:4S 001: 4S                 -20.653293637 Ry
:4PP001: 4P*                -16.361028767 Ry
:4P 001: 4P                 -14.834908416 Ry
:4DD001: 4D*                 -7.770491249 Ry
:4D 001: 4D                  -7.501547028 Ry

------- case.scfm --------
:CINT001 Core Integral Atom   1   45.999508

       DENSITY AT NUCLEUS
        JATOM        VALENCE       SEMI-CORE          CORE           TOTAL
:RTO001:   1      645.723741        0.000000   656823.875635   657469.599376
     
       CHARGES OF NEW CHARGE DENSITY
:NTO   : INTERSTITIAL CHARGE =     3.015543
:NPC   : PW Pseudocharge     =     7.511000
:NTO001: CHARGE SPHERE  1    =    55.984045

:NEC01: NUCLEAR AND ELECTRONIC CHARGE     59.00000    58.99959
     
       CHARGES OF OLD CHARGE DENSITY
:OTO   : INTERSTITIAL CHARGE =     2.968806
:OPC   : PW Pseudocharge     =     7.491112
:OTO001: CHARGE SPHERE  1    =    56.031194

:NEC02: NUCLEAR AND ELECTRONIC CHARGE     59.00000    59.00000
     
       CONVERGENCE TEST
:DTO001: DIFFERENCE IN SPHERE  1 =  0.0767417

:DIS  :  CHARGE DISTANCE       ( 0.0767417 for atom    1 spin 1)      0.0767417
 PW Mixed is           60
 
******************************************************
* MULTISECANT MIXING VER9 RELEASE 10.4.0              *
* Standard Mode with controls                        *
* Fixed density scale                                *
* Regularization       1.000E-04                     *
* Trust Upper Limit    5.000E+00                     *
* Max Number of Memory Steps    8                    *
******************************************************
 
:PWTMP   2.3061E+02  1.2500E+02  2.9606E+02
:PLANE:  PW TOTAL      2.6569 DISTAN   1.04E-01  3.92E+00 %
:CHARG:  CLM/ATOM    977.1747 DISTAN   2.74E-01  2.81E-02 %
 
Step History
        DMIX         DMIXT        Red     Pred      Trust     Lambda    MagRel    MagAbs     Beta
  1   3.5000E-02   3.5000E-02 -1.00E+00  1.00E+00 -1.00E+01  1.00E+00  3.50E-02  3.50E-02  1.00E+00
  2   2.5000E-02   2.5000E-02  9.79E-01  1.00E+00 -1.00E+01  1.00E+00  2.50E-02  1.11E-02  1.00E+00
  3   2.9828E-02   2.9828E-02  7.85E-01  1.00E+00 -1.00E+01  9.06E-01  2.98E-02  1.29E-02  1.00E+00
  4   7.4570E-02   2.5656E-02 -1.00E+00  8.16E-01  2.44E-01  1.00E+00  2.44E-01  8.31E-02  1.00E+00
:JACOBIANS    4.155E-01   6.415E-01
  
:NORMS:  1/Froebius, Min, Max, Used   0.9652E+00  0.6978E+00  0.1094E+01  0.9660E+00
:INFO :  Number of Memory Steps    3 Skipping    0
:INFO :  SLambda=    0.7603114875  Max    0.7603114875
:PREDicted Charge, CTotal, PW Trust    8.139E-03   8.139E-03   3.929E-03
:PREDicted DMix, Beta, BLim   5.6803E-01  1.7753E+00  9.3300E-01

Eigenvalues, unscaled except for SY+YY
   #     SY Real        SY Imag          SS             YY         SY+YY Real      SY+YY Imag
   1   2.691839E+00   0.000000E+00   2.793960E+00   2.994128E+00   5.040581E+00   0.000000E+00
   2  -1.351153E-14   0.000000E+00   1.145587E-03   5.619239E-03   4.231775E-04   0.000000E+00
   3   1.046153E-03   0.000000E+00   1.689055E-16   2.527860E-04   6.427363E-03   0.000000E+00
 
:INFO :  Singular value  5.041E+00 Weight  1.000E+00 Projection -8.841E-02
:INFO :  Singular value  6.427E-03 Weight  9.978E-01 Projection -4.332E-02
:INFO :  Singular value  4.232E-04 Weight  6.664E-01 Projection  1.076E+01
:RANK :  ACTIVE   2.66/3  =  88.81 % ; YY RANK   2.41/3  =  80.44 %
 
:BLIM :  VZERO Control Off
:TRUST:  Step 5.89E-01  Charge 7.50E-02 (e) CTO  2.50E-01 (e) PW  3.50E-01 (e)
:DTRUS:  Lambda    2.794E+00 Increment    7.276E-12 Iterations   121 DMIX    1.648E-01
:INFOA:  Angle SubSpace to MSR1      4.14
:DIRM :  MEMORY  3/8  SCALE   1.000 RED  0.86 PRED  0.82 NEXT  0.47 
:INFO :  Limited by Atoms F by Step T

:TRAVE:  Charge 6.81E-04 (e) CTO  6.81E-04 (e) PW  5.56E-04 (e)
:DIRP :  |MSR1|= 4.873E-02 |PRATT|= 1.043E-01 ANGLE=   5.1 DEGREES
:DIRQ :  |MSR1|= 1.657E-01 |PRATT|= 2.741E-01 ANGLE=  16.6 DEGREES
:DIRT :  |MSR1|= 1.727E-01 |PRATT|= 2.933E-01 ANGLE=  16.4 DEGREES
:MIX  :   MSD1   REGULARIZATION:  2.99E-04 GREED: 0.18643  LMStep 0.67  0.5887 Step           
     
       CHARGES OF MIXED CHARGE DENSITY
:CTO   : INTERSTITIAL CHARGE =     2.968196
:CPC   : PW Pseudocharge     =     7.492981
:CTO001: CHARGE SPHERE  1    =    56.031804

:NEC03: NUCLEAR AND ELECTRONIC CHARGE     59.00000    59.00000

PW CHANGE     H    K    L      Current       Change    Residue
:PTO001:      0    0    0  3.53346302E-02  4.257E-06  2.299E-04
:PTO002:     -1   -1   -1 -1.19001635E-01 -3.119E-04 -7.608E-04
:PTO003:      0    0   -2  7.22971928E-02  3.565E-04  7.334E-04
:PTO004:      0   -2   -2  6.71423041E-02  8.399E-04  1.902E-03
:PTO005:     -1   -1   -3 -6.93770843E-02 -2.120E-03 -4.510E-03
:PTO006:     -2   -2   -2  1.84285791E-02  8.138E-04  1.689E-03
:PTO007:      0    0   -4  4.09297424E-03  5.849E-04  1.211E-03
:PTO008:     -1   -3   -3 -3.92274701E-03 -2.046E-03 -4.441E-03
:PTO009:      0   -2   -4  5.02688137E-04  1.968E-03  4.271E-03
:PTO010:     -2   -2   -4 -6.46256326E-03  2.018E-03  4.250E-03
:PTO011:     -3   -3   -3  2.76001851E-03 -6.897E-04 -1.413E-03
:PTO012:     -1   -1   -5  8.53548838E-03 -1.800E-03 -3.787E-03

:ENE  : ********** TOTAL ENERGY IN Ry =       -18472.10439597


------- case.scf0 --------
 Flat Integration
 New Mode for Coulomb Integral
 Consistent 3/8+Simpson combinations
 Extension of core to zero
 LDM version in phi
 Fifth-order quadrature in outwin


            ---------
:ITE032: 32. ITERATION
            ---------

:NATO :    1 INDEPENDENT AND    1 TOTAL ATOMS IN UNITCELL
       SUBSTANCE: blebleble                                                   

       LATTICE                      = F   
:POT  : POTENTIAL OPTION EX_LDA EC_LDA VX_LDA VC_LDA
:LAT  : LATTICE CONSTANTS= 10.57986 10.57986 10.57986    1.571    1.571    1.571
:VOL  : UNIT CELL VOLUME =     296.06019
       MODE OF CALCULATION IS       = RELA
       NON-SPINPOLARIZED CALCULATION
:IFFT  : FFT-parameters:   90   90   90 Factor: 2.00


   CONVERGENCE PARAMETER FOR PSEUDOCHARGE: NCON=  9
   MAXIMAL VALUE OF RMT(JATOM)*ABSK(NKK) : RK  =29.98955


:VKCOUL :  VK-COUL convergence: 0.582E-07
       ATOMNUMBER=  1 Pr         VCOUL-ZERO =  0.78958E-01
:FIT001: LUSE= 13 SIGMA OF V-XC FIT FOR ATOM  1  0.1234719E-04
:FIT001: LUSE= 13 SIGMA OF V-XC FIT FOR ATOM  1  0.1234719E-04
:DEN  : DENSITY INTEGRAL  =         -7064.41569748   (Ry)
       ELS_POTENTIAL_AT Z=0 and Z=0.5:  -2.31002  -2.31002
       ELS_POTENTIAL_AT Y=0 and Y=0.5:   0.00000   0.00000
:VZERO:v0,v0c,v0x  -3.22994  -2.31002  -0.91992 v5,v5c,v5x  -3.22994  -2.31002  -0.91992
:VZERY:v0,v0c,v0x  -0.65241   0.00000  -0.65241 v5,v5c,v5x  -0.65241   0.00000  -0.65241
:VZERX:v0,v0c,v0x  -0.65241   0.00000  -0.65241 v5,v5c,v5x  -0.65241   0.00000  -0.65241

------- case.scf1 --------
:LMAX-WF:   10   Non-Spherical LMAX:   4

          ATOMIC SPHERE DEPENDENT PARAMETERS FOR ATOM  Pr        
:e__0001: OVERALL ENERGY PARAMETER IS    0.2429
          OVERALL BASIS SET ON ATOM IS LAPW
:E0_0001: E( 0)=    0.2429
             APW+lo
:E0_0001: E( 0)=   -2.2441   E(BOTTOM)=   -2.627   E(TOP)=   -1.861  4  5   156
             LOCAL ORBITAL
:E1_0001: E( 1)=    0.6429
             APW+lo
:E1_0001: E( 1)=   -0.8582   E(BOTTOM)=   -1.507   E(TOP)=   -0.210  3  4   159
             LOCAL ORBITAL
:E3_0001: E( 3)=    0.4424   E(BOTTOM)=    0.297   E(TOP)=    0.588  0  1   119
             APW+lo
:E2_0001: E( 2)=    0.2429   E(BOTTOM)=    0.068   E(TOP)= -200.000  2 -1    98
             APW+lo

       K=   0.00000   0.00000   0.00000            1
:RKM  : MATRIX SIZE   201LOs:  20  RKM= 8.40  WEIGHT= 1.00  PGR:    
       EIGENVALUES ARE:
:EIG00001:      -2.1985779   -0.8518142   -0.8518142   -0.8518142    0.1968317
:EIG00006:       0.4493681    0.4616311    0.4616311    0.4616311    0.4792180
:EIG00011:       0.4792180    0.4792180    0.5636059    0.5636059    0.5636059
:EIG00016:       0.6992160    0.6992160    1.0851700    1.2766179    1.2766179
:EIG00021:       1.2766179    1.3818119    1.9009903    1.9009903    1.9009903
:EIG00026:       1.9355905    1.9355905    1.9355905    2.1784437    2.1784437
:EIG00031:       2.4392211    2.6327721    2.6327721    2.6327721    3.0265126
:EIG00036:       3.0265126    3.2476203    3.2476203    3.2476203    3.2731383
:EIG00041:       3.2731383    3.2731383    3.4585994    3.4585994    3.4585994
:EIG00046:       3.6019210    3.6946018    3.6946018    3.6946018    3.7730195
 
:EIG00051:       3.7730195    3.7730195    3.7735683    3.7735683    3.7735683
:EIG00056:       3.7857133    3.7857133    3.8675595    3.9584055    4.0848392
:EIG00061:       4.0848392    4.0848392    4.1234695    4.1234695    4.1234695
:EIG00066:       4.2671439    5.2489405    5.2489405    5.2785678    5.4920414
:EIG00071:       5.4920414    5.4920414    5.8439274    5.8439274    5.9836357
:EIG00076:       5.9836357    5.9836357    6.0778150    6.0778150    6.0778150
:EIG00081:       6.3791693    6.3791693    6.3791693    6.4313244    6.4313244
:EIG00086:       6.4313244    6.4831634    6.4831634    6.5241624    6.5241624
:EIG00091:       6.5241624    6.6210175    6.6210175    6.6210175    6.6248025
:EIG00096:       6.6248025    6.6248025    6.6596918    6.7769461    6.7769461
 
:EIG00101:       6.7936715    6.8749403    6.8749403    6.8749403    6.9078562
:EIG00106:       6.9078562    6.9078562    6.9081363    6.9081363    6.9081363
:EIG00111:       6.9668578    6.9668578    7.1334273    7.1763391    7.4506892
:EIG00116:       7.4506892    7.4506892    7.7265657    7.7265657    7.7265657
       ********************************************************

:KPT   :      NUMBER OF K-POINTS:   165

------- case.scfso --------
   0.0   0.0 angle (M,z), angle (M,x) deg
 
        SPIN-ORBIT EIGENVALUES:
     K=   0.00000   0.00000   0.00000            1
      MATRIX SIZE=  240   WEIGHT= 1.00
     EIGENVALUES ARE:
          -2.1985779   -2.1985779   -0.9963980   -0.9963980   -0.7841547
          -0.7841547   -0.7841547   -0.7841547    0.1968317    0.1968317
           0.4435515    0.4435515    0.4499970    0.4499970    0.4499970
           0.4499970    0.4732659    0.4732659    0.4808491    0.4808491
           0.4870333    0.4870333    0.4870333    0.4870333    0.5599727
           0.5599727    0.5599727    0.5599727    0.5696192    0.5696192
           0.6996359    0.6996359    0.6996359    0.6996359    1.0852186
           1.0852186    1.2709469    1.2709469    1.2791560    1.2791560

           1.2791560    1.2791560    1.3818119    1.3818119    1.8724549
           1.8724549    1.8963432    1.8963432    1.8963432    1.8963432
           1.9098055    1.9098055    1.9681623    1.9681623    1.9681623
           1.9681623    2.1787219    2.1787219    2.1787219    2.1787219
           2.4392211    2.4392211    2.6323371    2.6323371    2.6330040
           2.6330040    2.6330040    2.6330040    3.0264924    3.0264924
           3.0264924    3.0264924    3.2463784    3.2463784    3.2463784
           3.2463784    3.2470347    3.2470347    3.2503238    3.2503238

           3.2873082    3.2873082    3.2873082    3.2873082    3.4585935
           3.4585935    3.4586024    3.4586024    3.4586024    3.4586024
           3.6019210    3.6019210    3.6945674    3.6945674    3.6945674
           3.6945674    3.6946746    3.6946746    3.7725161    3.7725161
           3.7725161    3.7725161    3.7728750    3.7728750    3.7737778
           3.7737778    3.7737778    3.7737778    3.7743143    3.7743143
           3.7857133    3.7857133    3.7857133    3.7857133    3.8675687
           3.8675687    3.9584055    3.9584055    4.0847830    4.0847830

           4.0847830    4.0847830    4.0849550    4.0849550    4.1226658
           4.1226658    4.1239138    4.1239138    4.1239138    4.1239138
           4.2671470    4.2671470
       ********************************************************

------- case.scf2 --------
:GMA  : POTENTIAL AND CHARGE CUT-OFF  12.00 Ry**.5




:POS001: at.nr.   1 position = 0.00000 0.00000 0.50000  multiplicity =  1

       lmmax  5
       lm=   0 0  4 0  4 4  6 0  6 4
:FER gutzwiller fermi energy   0.46236
:EORB         -0.081566216
:SUM sum of gutz band energies         -7.538050366

:CHA001: total charge inside sphere   1 =     9.965702
:PCS001: partial charges sphere =  1 s,p,d,f,      d-eg,d-t2g 
:QTL001: 2.0211 5.3656 0.5681 2.0107 0.0000 0.0000 0.0000 0.2024 0.3658 0.0000 0.0000 0.0000

:CHA  : total charge inside unit cell =       6.500000

------- case.scfc --------

        1.ATOM      Pr                   14 CORE STATES
:1S 001: 1S               -3067.142512951 Ry
:2S 001: 2S                -492.890596770 Ry
:2PP001: 2P*               -465.990948567 Ry
:2P 001: 2P                -430.593010625 Ry
:3S 001: 3S                -105.970381613 Ry
:3PP001: 3P*                -94.508704766 Ry
:3P 001: 3P                 -87.500524029 Ry
:3DD001: 3D*                -67.428834585 Ry
:3D 001: 3D                 -65.917113331 Ry
:4S 001: 4S                 -20.653934601 Ry
:4PP001: 4P*                -16.361674760 Ry
:4P 001: 4P                 -14.835548246 Ry
:4DD001: 4D*                 -7.771140566 Ry
:4D 001: 4D                  -7.502195391 Ry

------- case.scfm --------
:CINT001 Core Integral Atom   1   45.999508

       DENSITY AT NUCLEUS
        JATOM        VALENCE       SEMI-CORE          CORE           TOTAL
:RTO001:   1      645.714034        0.000000   656824.102247   657469.816282
     
       CHARGES OF NEW CHARGE DENSITY
:NTO   : INTERSTITIAL CHARGE =     3.034212
:NPC   : PW Pseudocharge     =     7.517708
:NTO001: CHARGE SPHERE  1    =    55.965210

:NEC01: NUCLEAR AND ELECTRONIC CHARGE     59.00000    58.99942
     
       CHARGES OF OLD CHARGE DENSITY
:OTO   : INTERSTITIAL CHARGE =     2.968196
:OPC   : PW Pseudocharge     =     7.492981
:OTO001: CHARGE SPHERE  1    =    56.031804

:NEC02: NUCLEAR AND ELECTRONIC CHARGE     59.00000    59.00000
     
       CONVERGENCE TEST
:DTO001: DIFFERENCE IN SPHERE  1 =  0.1089002

:DIS  :  CHARGE DISTANCE       ( 0.1089002 for atom    1 spin 1)      0.1089002
 PW Mixed is           60
 
******************************************************
* MULTISECANT MIXING VER9 RELEASE 10.4.0              *
* Standard Mode with controls                        *
* Fixed density scale                                *
* Regularization       1.000E-04                     *
* Trust Upper Limit    5.000E+00                     *
* Max Number of Memory Steps    8                    *
******************************************************
 
:PWTMP   2.3061E+02  1.2500E+02  2.9606E+02
:PLANE:  PW TOTAL      2.6676 DISTAN   5.63E-02  2.11E+00 %
:CHARG:  CLM/ATOM    977.1723 DISTAN   1.50E-01  1.54E-02 %
 
Step History
        DMIX         DMIXT        Red     Pred      Trust     Lambda    MagRel    MagAbs     Beta
  1   3.5000E-02   3.5000E-02 -1.00E+00  1.00E+00 -1.00E+01  1.00E+00  3.50E-02  3.50E-02  1.00E+00
  2   2.5000E-02   2.5000E-02  9.79E-01  1.00E+00 -1.00E+01  1.00E+00  2.50E-02  1.11E-02  1.00E+00
  3   2.9828E-02   2.9828E-02  7.85E-01  1.00E+00 -1.00E+01  9.06E-01  2.98E-02  1.29E-02  1.00E+00
  4   7.4570E-02   2.5656E-02  8.62E-01  8.16E-01  2.44E-01  7.60E-01  2.44E-01  8.31E-02  1.00E+00
  5   1.8643E-01   1.6479E-01 -1.00E+00  4.72E-01  5.89E-01  1.00E+00  5.89E-01  1.73E-01  1.00E+00
:JACOBIANS    7.002E-01   8.287E-01
  
:NORMS:  1/Froebius, Min, Max, Used   0.9999E+00  0.5401E+00  0.1002E+01  0.1001E+01
:INFO :  Number of Memory Steps    4 Skipping    0
:INFO :  SLambda=    0.6831071145  Max    0.6831071145
:PREDicted Charge, CTotal, PW Trust    3.717E-04   3.717E-04   1.975E-03
:PREDicted DMix, Beta, BLim   6.9135E-01  1.5421E+00  9.3449E-01

Eigenvalues, unscaled except for SY+YY
   #     SY Real        SY Imag          SS             YY         SY+YY Real      SY+YY Imag
   1   3.710073E+00   0.000000E+00   3.859978E+00   3.849841E+00   6.384000E+00   0.000000E+00
   2   1.403066E-01   0.000000E+00   1.394966E-01   1.490768E-01   2.451000E-01   0.000000E+00
   3   1.750838E-16   0.000000E+00   7.952287E-07   1.080616E-03   1.613640E-06   0.000000E+00
   4   2.104968E-05   0.000000E+00  -1.327838E-16   1.467259E-06   1.133975E-03   0.000000E+00
 
:INFO :  Singular value  6.384E+00 Weight  1.000E+00 Projection -4.225E-02
:INFO :  Singular value  2.451E-01 Weight  1.000E+00 Projection -1.974E-01
:INFO :  Singular value  1.134E-03 Weight  8.967E-01 Projection  3.164E+00
:INFO :  Singular value  1.614E-06 Weight  1.757E-05 Projection  1.662E-04
:RANK :  ACTIVE   2.90/4  =  72.42 % ; YY RANK   2.89/4  =  72.18 %
 
:BLIM :  VZERO Control Off
:TRUST:  Step 7.85E-01  Charge 7.50E-02 (e) CTO  2.50E-01 (e) PW  3.50E-01 (e)
:DIRM :  MEMORY  4/8  SCALE   1.000 RED  0.55 PRED  0.47 NEXT  0.11 
:TRAVE:  Charge 2.35E-03 (e) CTO  2.35E-03 (e) PW  1.87E-03 (e)
:DIRP :  |MSR1|= 5.652E-02 |PRATT|= 5.628E-02 ANGLE=  11.9 DEGREES
:DIRQ :  |MSR1|= 8.785E-02 |PRATT|= 1.501E-01 ANGLE=  42.4 DEGREES
:DIRT :  |MSR1|= 1.045E-01 |PRATT|= 1.603E-01 ANGLE=  39.8 DEGREES
:MIX  :   MSD1   REGULARIZATION:  3.85E-04 GREED: 0.35000  Newton 1.00  0.6516                
     
       CHARGES OF MIXED CHARGE DENSITY
:CTO   : INTERSTITIAL CHARGE =     2.972213
:CPC   : PW Pseudocharge     =     7.496526
:CTO001: CHARGE SPHERE  1    =    56.027787

:NEC03: NUCLEAR AND ELECTRONIC CHARGE     59.00000    59.00000

PW CHANGE     H    K    L      Current       Change    Residue
:PTO001:      0    0    0  3.53601716E-02  2.554E-05  3.133E-04
:PTO002:     -1   -1   -1 -1.19392848E-01 -3.912E-04 -4.843E-04
:PTO003:      0    0   -2  7.26780304E-02  3.808E-04  3.797E-04
:PTO004:      0   -2   -2  6.81868665E-02  1.045E-03  1.066E-03
:PTO005:     -1   -1   -3 -7.18375814E-02 -2.460E-03 -2.370E-03
:PTO006:     -2   -2   -2  1.93188936E-02  8.903E-04  8.825E-04
:PTO007:      0    0   -4  4.75042417E-03  6.574E-04  6.173E-04
:PTO008:     -1   -3   -3 -6.37301374E-03 -2.450E-03 -2.376E-03
:PTO009:      0   -2   -4  2.88349534E-03  2.381E-03  2.271E-03
:PTO010:     -2   -2   -4 -4.17118215E-03  2.291E-03  2.222E-03
:PTO011:     -3   -3   -3  2.02317161E-03 -7.368E-04 -7.263E-04
:PTO012:     -1   -1   -5  6.47496234E-03 -2.061E-03 -1.964E-03

:ENE  : ********** TOTAL ENERGY IN Ry =       -18472.10490665


------- case.scf0 --------
 Flat Integration
 New Mode for Coulomb Integral
 Consistent 3/8+Simpson combinations
 Extension of core to zero
 LDM version in phi
 Fifth-order quadrature in outwin


            ---------
:ITE033: 33. ITERATION
            ---------

:NATO :    1 INDEPENDENT AND    1 TOTAL ATOMS IN UNITCELL
       SUBSTANCE: blebleble                                                   

       LATTICE                      = F   
:POT  : POTENTIAL OPTION EX_LDA EC_LDA VX_LDA VC_LDA
:LAT  : LATTICE CONSTANTS= 10.57986 10.57986 10.57986    1.571    1.571    1.571
:VOL  : UNIT CELL VOLUME =     296.06019
       MODE OF CALCULATION IS       = RELA
       NON-SPINPOLARIZED CALCULATION
:IFFT  : FFT-parameters:   90   90   90 Factor: 2.00


   CONVERGENCE PARAMETER FOR PSEUDOCHARGE: NCON=  9
   MAXIMAL VALUE OF RMT(JATOM)*ABSK(NKK) : RK  =29.98955


:VKCOUL :  VK-COUL convergence: 0.405E-07
       ATOMNUMBER=  1 Pr         VCOUL-ZERO =  0.77552E-01
:FIT001: LUSE= 13 SIGMA OF V-XC FIT FOR ATOM  1  0.1027536E-04
:FIT001: LUSE= 13 SIGMA OF V-XC FIT FOR ATOM  1  0.1027536E-04
:DEN  : DENSITY INTEGRAL  =         -7063.92848869   (Ry)
       ELS_POTENTIAL_AT Z=0 and Z=0.5:  -2.30199  -2.30199
       ELS_POTENTIAL_AT Y=0 and Y=0.5:   0.00000   0.00000
:VZERO:v0,v0c,v0x  -3.22421  -2.30199  -0.92222 v5,v5c,v5x  -3.22421  -2.30199  -0.92222
:VZERY:v0,v0c,v0x  -0.65250   0.00000  -0.65250 v5,v5c,v5x  -0.65250   0.00000  -0.65250
:VZERX:v0,v0c,v0x  -0.65250   0.00000  -0.65250 v5,v5c,v5x  -0.65250   0.00000  -0.65250

------- case.scf1 --------
:LMAX-WF:   10   Non-Spherical LMAX:   4

          ATOMIC SPHERE DEPENDENT PARAMETERS FOR ATOM  Pr        
:e__0001: OVERALL ENERGY PARAMETER IS    0.2429
          OVERALL BASIS SET ON ATOM IS LAPW
:E0_0001: E( 0)=    0.2429
             APW+lo
:E0_0001: E( 0)=   -2.2484   E(BOTTOM)=   -2.631   E(TOP)=   -1.866  4  5   156
             LOCAL ORBITAL
:E1_0001: E( 1)=    0.6429
             APW+lo
:E1_0001: E( 1)=   -0.8621   E(BOTTOM)=   -1.510   E(TOP)=   -0.214  3  4   159
             LOCAL ORBITAL
:E3_0001: E( 3)=    0.4359   E(BOTTOM)=    0.291   E(TOP)=    0.581  0  1   117
             APW+lo
:E2_0001: E( 2)=    0.2429   E(BOTTOM)=    0.065   E(TOP)= -200.000  2 -1    95
             APW+lo

       K=   0.00000   0.00000   0.00000            1
:RKM  : MATRIX SIZE   201LOs:  20  RKM= 8.40  WEIGHT= 1.00  PGR:    
       EIGENVALUES ARE:
:EIG00001:      -2.2028450   -0.8554429   -0.8554429   -0.8554429    0.1955300
:EIG00006:       0.4431478    0.4553094    0.4553094    0.4553094    0.4726526
:EIG00011:       0.4726526    0.4726526    0.5616025    0.5616025    0.5616025
:EIG00016:       0.6969857    0.6969857    1.0834873    1.2751884    1.2751884
:EIG00021:       1.2751884    1.3810237    1.8987902    1.8987902    1.8987902
:EIG00026:       1.9336823    1.9336823    1.9336823    2.1764816    2.1764816
:EIG00031:       2.4375458    2.6312016    2.6312016    2.6312016    3.0248802
:EIG00036:       3.0248802    3.2460814    3.2460814    3.2460814    3.2718641
:EIG00041:       3.2718641    3.2718641    3.4572016    3.4572016    3.4572016
:EIG00046:       3.6004392    3.6934006    3.6934006    3.6934006    3.7717796
 
:EIG00051:       3.7717796    3.7717796    3.7724676    3.7724676    3.7724676
:EIG00056:       3.7846376    3.7846376    3.8664866    3.9571000    4.0839310
:EIG00061:       4.0839310    4.0839310    4.1224300    4.1224300    4.1224300
:EIG00066:       4.2661999    5.2474839    5.2474839    5.2771855    5.4907136
:EIG00071:       5.4907136    5.4907136    5.8415177    5.8415177    5.9812043
:EIG00076:       5.9812043    5.9812043    6.0759078    6.0759078    6.0759078
:EIG00081:       6.3775333    6.3775333    6.3775333    6.4298787    6.4298787
:EIG00086:       6.4298787    6.4819700    6.4819700    6.5229451    6.5229451
:EIG00091:       6.5229451    6.6196996    6.6196996    6.6196996    6.6234880
:EIG00096:       6.6234880    6.6234880    6.6584406    6.7754167    6.7754167
 
:EIG00101:       6.7924224    6.8738918    6.8738918    6.8738918    6.9069082
:EIG00106:       6.9069082    6.9069082    6.9071422    6.9071422    6.9071422
:EIG00111:       6.9658416    6.9658416    7.1326058    7.1748101    7.4498114
:EIG00116:       7.4498114    7.4498114    7.7255635    7.7255635    7.7255635
       ********************************************************

:KPT   :      NUMBER OF K-POINTS:   165

------- case.scfso --------
   0.0   0.0 angle (M,z), angle (M,x) deg
 
        SPIN-ORBIT EIGENVALUES:
     K=   0.00000   0.00000   0.00000            1
      MATRIX SIZE=  240   WEIGHT= 1.00
     EIGENVALUES ARE:
          -2.2028450   -2.2028450   -1.0001647   -1.0001647   -0.7877165
          -0.7877165   -0.7877165   -0.7877165    0.1955300    0.1955300
           0.4372501    0.4372501    0.4436055    0.4436055    0.4436055
           0.4436055    0.4669746    0.4669746    0.4743596    0.4743596
           0.4805262    0.4805262    0.4805262    0.4805262    0.5579584
           0.5579584    0.5579584    0.5579584    0.5676306    0.5676306
           0.6974085    0.6974085    0.6974085    0.6974085    1.0835349
           1.0835349    1.2694989    1.2694989    1.2777346    1.2777346

           1.2777346    1.2777346    1.3810237    1.3810237    1.8705426
           1.8705426    1.8941408    1.8941408    1.8941408    1.8941408
           1.9076105    1.9076105    1.9662584    1.9662584    1.9662584
           1.9662584    2.1767602    2.1767602    2.1767602    2.1767602
           2.4375458    2.4375458    2.6307682    2.6307682    2.6314326
           2.6314326    2.6314326    2.6314326    3.0248601    3.0248601
           3.0248601    3.0248601    3.2448403    3.2448403    3.2448403
           3.2448403    3.2457771    3.2457771    3.2487832    3.2487832

           3.2860247    3.2860247    3.2860247    3.2860247    3.4571956
           3.4571956    3.4572046    3.4572046    3.4572046    3.4572046
           3.6004392    3.6004392    3.6933662    3.6933662    3.6933662
           3.6933662    3.6934735    3.6934735    3.7713384    3.7713384
           3.7713384    3.7713384    3.7716357    3.7716357    3.7726157
           3.7726157    3.7726157    3.7726157    3.7732113    3.7732113
           3.7846376    3.7846376    3.7846376    3.7846376    3.8664957
           3.8664957    3.9571000    3.9571000    4.0838749    4.0838749

           4.0838749    4.0838749    4.0840467    4.0840467    4.1216272
           4.1216272    4.1228736    4.1228736    4.1228736    4.1228736
           4.2662030    4.2662030
       ********************************************************

------- case.scf2 --------
:GMA  : POTENTIAL AND CHARGE CUT-OFF  12.00 Ry**.5




:POS001: at.nr.   1 position = 0.00000 0.00000 0.50000  multiplicity =  1

       lmmax  5
       lm=   0 0  4 0  4 4  6 0  6 4
:FER gutzwiller fermi energy   0.46140
:EORB         -0.094601391
:SUM sum of gutz band energies         -7.574073548

:CHA001: total charge inside sphere   1 =     9.962938
:PCS001: partial charges sphere =  1 s,p,d,f,      d-eg,d-t2g 
:QTL001: 2.0213 5.3675 0.5732 2.0007 0.0000 0.0000 0.0000 0.2040 0.3692 0.0000 0.0000 0.0000

:CHA  : total charge inside unit cell =       6.500000

------- case.scfc --------

        1.ATOM      Pr                   14 CORE STATES
:1S 001: 1S               -3067.152908111 Ry
:2S 001: 2S                -492.901031592 Ry
:2PP001: 2P*               -466.001372075 Ry
:2P 001: 2P                -430.603437931 Ry
:3S 001: 3S                -105.980711181 Ry
:3PP001: 3P*                -94.519047639 Ry
:3P 001: 3P                 -87.510838834 Ry
:3DD001: 3D*                -67.439196106 Ry
:3D 001: 3D                 -65.927468430 Ry
:4S 001: 4S                 -20.662607381 Ry
:4PP001: 4P*                -16.370236116 Ry
:4P 001: 4P                 -14.843939888 Ry
:4DD001: 4D*                 -7.779220604 Ry
:4D 001: 4D                  -7.510216505 Ry

------- case.scfm --------
:CINT001 Core Integral Atom   1   45.999510

       DENSITY AT NUCLEUS
        JATOM        VALENCE       SEMI-CORE          CORE           TOTAL
:RTO001:   1      646.130289        0.000000   656824.445693   657470.575982
     
       CHARGES OF NEW CHARGE DENSITY
:NTO   : INTERSTITIAL CHARGE =     3.037014
:NPC   : PW Pseudocharge     =     7.518961
:NTO001: CHARGE SPHERE  1    =    55.962447

:NEC01: NUCLEAR AND ELECTRONIC CHARGE     59.00000    58.99946
     
       CHARGES OF OLD CHARGE DENSITY
:OTO   : INTERSTITIAL CHARGE =     2.972213
:OPC   : PW Pseudocharge     =     7.496526
:OTO001: CHARGE SPHERE  1    =    56.027787

:NEC02: NUCLEAR AND ELECTRONIC CHARGE     59.00000    59.00000
     
       CONVERGENCE TEST
:DTO001: DIFFERENCE IN SPHERE  1 =  0.1071675

:DIS  :  CHARGE DISTANCE       ( 0.1071675 for atom    1 spin 1)      0.1071675
 PW Mixed is           60
 
******************************************************
* MULTISECANT MIXING VER9 RELEASE 10.4.0              *
* Standard Mode with controls                        *
* Fixed density scale                                *
* Regularization       1.000E-04                     *
* Trust Upper Limit    5.000E+00                     *
* Max Number of Memory Steps    8                    *
******************************************************
 
:PWTMP   2.3061E+02  1.2500E+02  2.9606E+02
:PLANE:  PW TOTAL      2.6818 DISTAN   1.22E-02  4.55E-01 %
:CHARG:  CLM/ATOM    977.1719 DISTAN   1.09E-01  1.11E-02 %
 
Step History
        DMIX         DMIXT        Red     Pred      Trust     Lambda    MagRel    MagAbs     Beta
  1   3.5000E-02   3.5000E-02 -1.00E+00  1.00E+00 -1.00E+01  1.00E+00  3.50E-02  3.50E-02  1.00E+00
  2   2.5000E-02   2.5000E-02  9.79E-01  1.00E+00 -1.00E+01  1.00E+00  2.50E-02  1.11E-02  1.00E+00
  3   2.9828E-02   2.9828E-02  7.85E-01  1.00E+00 -1.00E+01  9.06E-01  2.98E-02  1.29E-02  1.00E+00
  4   7.4570E-02   2.5656E-02  8.62E-01  8.16E-01  2.44E-01  7.60E-01  2.44E-01  8.31E-02  1.00E+00
  5   1.8643E-01   1.6479E-01  5.47E-01  4.72E-01  5.89E-01  6.83E-01  5.89E-01  1.73E-01  1.00E+00
  6   3.5000E-01   3.5000E-01 -1.00E+00  1.12E-01  7.85E-01  1.00E+00  6.52E-01  1.04E-01  1.00E+00
:JACOBIANS    8.459E-01   1.094E+00
  
:NORMS:  1/Froebius, Min, Max, Used   0.1015E+01  0.6076E+00  0.1021E+01  0.1021E+01
:INFO :  Number of Memory Steps    5 Skipping    0
:INFO :  SLambda=    0.5152489494  Max    0.5152489494
:PREDicted Charge, CTotal, PW Trust    3.107E-02   3.107E-02   1.971E-02
:PREDicted DMix, Beta, BLim   2.3875E-01  1.1276E+00  1.8396E+00

Eigenvalues, unscaled except for SY+YY
   #     SY Real        SY Imag          SS             YY         SY+YY Real      SY+YY Imag
   1   4.702559E+00   0.000000E+00   4.888827E+00   4.690232E+00   7.113013E+00   0.000000E+00
   2   2.663536E-01   0.000000E+00   2.604821E-01   3.076658E-01   4.450457E-01   0.000000E+00
   3   8.430996E-04   0.000000E+00   6.223569E-04   2.083387E-03   2.587056E-03   0.000000E+00
   4   1.334638E-15   0.000000E+00   2.230298E-07   1.841571E-05   4.812429E-07   0.000000E+00
   5   6.240510E-07   0.000000E+00   1.517195E-16   7.431322E-07   1.530929E-05   0.000000E+00
 
:INFO :  Singular value  7.113E+00 Weight  1.000E+00 Projection -2.680E-03
:INFO :  Singular value  4.450E-01 Weight  1.000E+00 Projection -5.084E-02
:INFO :  Singular value  2.599E-03 Weight  9.685E-01 Projection  2.162E+00
:INFO :  Singular value  1.539E-05 Weight  1.075E-03 Projection  1.156E-03
:INFO :  Singular value  4.765E-07 Weight  1.032E-06 Projection -1.330E-05
:RANK :  ACTIVE   2.97/5  =  59.39 % ; YY RANK   2.95/5  =  59.07 %
 
:BLIM :  VZERO Control Off
:TRUST:  Step 1.22E+00  Charge 6.00E-02 (e) CTO  2.00E-01 (e) PW  2.80E-01 (e)
:DIRM :  MEMORY  5/8  SCALE   1.000 RED  0.68 PRED  0.11 NEXT  0.20 
:TRAVE:  Charge 1.43E-02 (e) CTO  1.43E-02 (e) PW  8.75E-03 (e)
:DIRP :  |MSR1|= 5.479E-03 |PRATT|= 1.221E-02 ANGLE=  15.5 DEGREES
:DIRQ :  |MSR1|= 4.989E-02 |PRATT|= 1.087E-01 ANGLE=  30.5 DEGREES
:DIRT :  |MSR1|= 5.019E-02 |PRATT|= 1.094E-01 ANGLE=  30.3 DEGREES
:MIX  :   MSD1   REGULARIZATION:  4.69E-04 GREED: 0.23671  Newton 1.00  0.4586                
     
       CHARGES OF MIXED CHARGE DENSITY
:CTO   : INTERSTITIAL CHARGE =     2.998438
:CPC   : PW Pseudocharge     =     7.507312
:CTO001: CHARGE SPHERE  1    =    56.001562

:NEC03: NUCLEAR AND ELECTRONIC CHARGE     59.00000    59.00000

PW CHANGE     H    K    L      Current       Change    Residue
:PTO001:      0    0    0  3.54851844E-02  1.250E-04  3.010E-04
:PTO002:     -1   -1   -1 -1.19497287E-01 -1.044E-04 -1.113E-04
:PTO003:      0    0   -2  7.26576535E-02 -2.038E-05 -4.917E-06
:PTO004:      0   -2   -2  6.82545620E-02  6.770E-05  2.838E-05
:PTO005:     -1   -1   -3 -7.18626810E-02 -2.510E-05  7.274E-05
:PTO006:     -2   -2   -2  1.93452772E-02  2.638E-05  5.546E-06
:PTO007:      0    0   -4  4.72884943E-03 -2.157E-05 -3.887E-05
:PTO008:     -1   -3   -3 -6.35881130E-03  1.420E-05  7.018E-05
:PTO009:      0   -2   -4  2.82489756E-03 -5.860E-05 -1.144E-04
:PTO010:     -2   -2   -4 -4.22453017E-03 -5.335E-05 -7.007E-05
:PTO011:     -3   -3   -3  2.03516998E-03  1.200E-05  9.027E-06
:PTO012:     -1   -1   -5  6.56757995E-03  9.262E-05  1.050E-04

:ENE  : ********** TOTAL ENERGY IN Ry =       -18472.10563488


------- case.scf0 --------
 Flat Integration
 New Mode for Coulomb Integral
 Consistent 3/8+Simpson combinations
 Extension of core to zero
 LDM version in phi
 Fifth-order quadrature in outwin


            ---------
:ITE034: 34. ITERATION
            ---------

:NATO :    1 INDEPENDENT AND    1 TOTAL ATOMS IN UNITCELL
       SUBSTANCE: blebleble                                                   

       LATTICE                      = F   
:POT  : POTENTIAL OPTION EX_LDA EC_LDA VX_LDA VC_LDA
:LAT  : LATTICE CONSTANTS= 10.57986 10.57986 10.57986    1.571    1.571    1.571
:VOL  : UNIT CELL VOLUME =     296.06019
       MODE OF CALCULATION IS       = RELA
       NON-SPINPOLARIZED CALCULATION
:IFFT  : FFT-parameters:   90   90   90 Factor: 2.00


   CONVERGENCE PARAMETER FOR PSEUDOCHARGE: NCON=  9
   MAXIMAL VALUE OF RMT(JATOM)*ABSK(NKK) : RK  =29.98955


:VKCOUL :  VK-COUL convergence: 0.416E-07
       ATOMNUMBER=  1 Pr         VCOUL-ZERO =  0.76565E-01
:FIT001: LUSE= 13 SIGMA OF V-XC FIT FOR ATOM  1  0.1149174E-04
:FIT001: LUSE= 13 SIGMA OF V-XC FIT FOR ATOM  1  0.1149174E-04
:DEN  : DENSITY INTEGRAL  =         -7061.74675788   (Ry)
       ELS_POTENTIAL_AT Z=0 and Z=0.5:  -2.31532  -2.31532
       ELS_POTENTIAL_AT Y=0 and Y=0.5:   0.00000   0.00000
:VZERO:v0,v0c,v0x  -3.23755  -2.31532  -0.92223 v5,v5c,v5x  -3.23755  -2.31532  -0.92223
:VZERY:v0,v0c,v0x  -0.65382   0.00000  -0.65382 v5,v5c,v5x  -0.65382   0.00000  -0.65382
:VZERX:v0,v0c,v0x  -0.65382   0.00000  -0.65382 v5,v5c,v5x  -0.65382   0.00000  -0.65382

------- case.scf1 --------
:LMAX-WF:   10   Non-Spherical LMAX:   4

          ATOMIC SPHERE DEPENDENT PARAMETERS FOR ATOM  Pr        
:e__0001: OVERALL ENERGY PARAMETER IS    0.2429
          OVERALL BASIS SET ON ATOM IS LAPW
:E0_0001: E( 0)=    0.2429
             APW+lo
:E0_0001: E( 0)=   -2.2671   E(BOTTOM)=   -2.647   E(TOP)=   -1.888  4  5   156
             LOCAL ORBITAL
:E1_0001: E( 1)=    0.6429
             APW+lo
:E1_0001: E( 1)=   -0.8781   E(BOTTOM)=   -1.522   E(TOP)=   -0.234  3  4   166
             LOCAL ORBITAL
:E3_0001: E( 3)=    0.4045   E(BOTTOM)=    0.263   E(TOP)=    0.546  0  1   111
             APW+lo
:E2_0001: E( 2)=    0.2429   E(BOTTOM)=    0.056   E(TOP)= -200.000  2 -1   102
             APW+lo

       K=   0.00000   0.00000   0.00000            1
:RKM  : MATRIX SIZE   201LOs:  20  RKM= 8.40  WEIGHT= 1.00  PGR:    
       EIGENVALUES ARE:
:EIG00001:      -2.2212843   -0.8700051   -0.8700051   -0.8700051    0.1952475
:EIG00006:       0.4139425    0.4245829    0.4245829    0.4245829    0.4405933
:EIG00011:       0.4405933    0.4405933    0.5572513    0.5572513    0.5572513
:EIG00016:       0.6908256    0.6908256    1.0812667    1.2740044    1.2740044
:EIG00021:       1.2740044    1.3833928    1.8934351    1.8934351    1.8934351
:EIG00026:       1.9296086    1.9296086    1.9296086    2.1728790    2.1728790
:EIG00031:       2.4348142    2.6296382    2.6296382    2.6296382    3.0224688
:EIG00036:       3.0224688    3.2444111    3.2444111    3.2444111    3.2716226
:EIG00041:       3.2716226    3.2716226    3.4561546    3.4561546    3.4561546
:EIG00046:       3.5990583    3.6941389    3.6941389    3.6941389    3.7724592
 
:EIG00051:       3.7724592    3.7724592    3.7727659    3.7727659    3.7727659
:EIG00056:       3.7859420    3.7859420    3.8674576    3.9566509    4.0858384
:EIG00061:       4.0858384    4.0858384    4.1237226    4.1237226    4.1237226
:EIG00066:       4.2678489    5.2465486    5.2465486    5.2766002    5.4901758
:EIG00071:       5.4901758    5.4901758    5.8360296    5.8360296    5.9753982
:EIG00076:       5.9753982    5.9753982    6.0722131    6.0722131    6.0722131
:EIG00081:       6.3760115    6.3760115    6.3760115    6.4291273    6.4291273
:EIG00086:       6.4291273    6.4824784    6.4824784    6.5231896    6.5231896
:EIG00091:       6.5231896    6.6193561    6.6193561    6.6193561    6.6232584
:EIG00096:       6.6232584    6.6232584    6.6582420    6.7742219    6.7742219
 
:EIG00101:       6.7927797    6.8750861    6.8750861    6.8750861    6.9084862
:EIG00106:       6.9084862    6.9084862    6.9087087    6.9087087    6.9087087
:EIG00111:       6.9673815    6.9673815    7.1353567    7.1730998    7.4521814
:EIG00116:       7.4521814    7.4521814    7.7272047    7.7272047    7.7272047
       ********************************************************

:KPT   :      NUMBER OF K-POINTS:   165

------- case.scfso --------
   0.0   0.0 angle (M,z), angle (M,x) deg
 
        SPIN-ORBIT EIGENVALUES:
     K=   0.00000   0.00000   0.00000            1
      MATRIX SIZE=  240   WEIGHT= 1.00
     EIGENVALUES ARE:
          -2.2212843   -2.2212843   -1.0155640   -1.0155640   -0.8018719
          -0.8018719   -0.8018719   -0.8018719    0.1952475    0.1952475
           0.4074051    0.4074051    0.4124846    0.4124846    0.4124846
           0.4124846    0.4364168    0.4364168    0.4429111    0.4429111
           0.4487981    0.4487981    0.4487981    0.4487981    0.5535385
           0.5535385    0.5535385    0.5535385    0.5633707    0.5633707
           0.6912687    0.6912687    0.6912687    0.6912687    1.0813090
           1.0813090    1.2681984    1.2681984    1.2766021    1.2766021

           1.2766021    1.2766021    1.3833928    1.3833928    1.8664664
           1.8664664    1.8887807    1.8887807    1.8887807    1.8887807
           1.9022695    1.9022695    1.9622017    1.9622017    1.9622018
           1.9622018    2.1731579    2.1731579    2.1731579    2.1731579
           2.4348142    2.4348142    2.6292147    2.6292147    2.6298638
           2.6298638    2.6298638    2.6298638    3.0224495    3.0224495
[...]
 41   1.0008E-02   1.0008E-02  3.49E-01  4.28E-01  6.25E-01  1.33E-01  3.30E-01  7.08E-03  7.17E-01
 42   1.0982E-02   1.0982E-02  9.15E-01  9.08E-01  7.81E-01  8.11E-01  2.64E-01  1.98E-03  8.96E-01
 43   1.0736E-02   1.0736E-02  1.57E+00  7.93E-01  9.82E-01  2.57E-01  6.58E-01  4.51E-03  1.00E+00
 44   2.6841E-02   2.6841E-02  5.50E-01  1.87E-01  8.27E-01  3.13E-01  3.55E-01  3.82E-03  8.85E-01
 45   6.7103E-02   6.7103E-02  6.90E-01  7.80E-02  1.03E+00  1.00E+00  4.84E-01  2.87E-03  1.00E+00
 46   5.4164E-02   5.4164E-02  9.59E-01  2.15E-01  1.38E+00  5.56E-01  3.20E-01  1.31E-03  8.00E-01
 47   1.0937E-01   9.1269E-02  4.60E+00  1.31E-01  1.99E+00  6.24E-01  1.99E+00  7.79E-03  1.00E+00
 48   8.3976E-02   8.3976E-02  3.36E-02  2.01E-01  1.49E+00  1.00E+00  2.94E-01  5.29E-03  8.00E-01
 49   2.0994E-01   2.0994E-01 -1.00E+00  3.65E-01  1.99E+00  1.00E+00  1.73E+00  1.05E-03  7.48E-01
:JACOBIANS    1.078E+00   4.299E+00
  
:NORMS:  1/Froebius, Min, Max, Used   0.8058E+00  0.5755E+00  0.1027E+01  0.8492E+00
:INFO :  Number of Memory Steps   11 Skipping   37
:INFO :  SLambda=    0.8898838604  Max    1.2813998607
:PREDicted Charge, CTotal, PW Trust    5.147E-04   5.147E-04   3.108E-04
:PREDicted DMix, Beta, BLim   2.6941E-01  1.0354E+00  1.8603E+00

Eigenvalues, unscaled except for SY+YY
   #     SY Real        SY Imag          SS             YY         SY+YY Real      SY+YY Imag
   1   2.057351E+00   1.531583E+00   5.572543E+00   7.727090E+00   1.013323E+01   0.000000E+00
   2   2.057351E+00  -1.531583E+00   1.004283E+00   2.591017E+00   3.796041E+00   0.000000E+00
   3   5.700072E-01   0.000000E+00   5.205118E-01   6.081479E-01   1.125589E+00   0.000000E+00
   4   4.982996E-02   0.000000E+00   3.560847E-02   5.444420E-02   1.373168E-01   0.000000E+00
   5   8.922008E-03   0.000000E+00   7.400356E-03   1.235244E-02   2.075504E-02   0.000000E+00
   6   2.576649E-03   0.000000E+00   1.239798E-03   4.846650E-03   7.714802E-03   0.000000E+00
   7   5.234341E-04   0.000000E+00   1.188081E-04   1.966674E-03   3.110659E-03   0.000000E+00
   8   5.229977E-06   0.000000E+00   8.957410E-07   1.055225E-04   1.058856E-04   0.000000E+00
   9   1.379070E-06   0.000000E+00   7.099616E-08   1.834637E-05  -8.999986E-11   0.000000E+00
  10  -9.775666E-09   0.000000E+00   2.499881E-08   9.324246E-06   6.288235E-06   0.000000E+00
  11   4.881062E-07   0.000000E+00   5.813874E-09   1.416530E-06   1.990962E-05   0.000000E+00
 
:INFO :  Singular value  1.137E+01 Weight  1.000E+00 Projection  4.511E-04
:INFO :  Singular value  3.609E+00 Weight  1.000E+00 Projection -2.012E-05
:INFO :  Singular value  1.127E+00 Weight  1.000E+00 Projection  5.410E-05
:INFO :  Singular value  1.330E-01 Weight  1.000E+00 Projection  4.184E-05
:INFO :  Singular value  2.132E-02 Weight  9.987E-01 Projection  2.350E-04
:INFO :  Singular value  7.908E-03 Weight  9.905E-01 Projection -1.697E-03
:INFO :  Singular value  2.956E-03 Weight  9.360E-01 Projection  1.253E-03
:INFO :  Singular value  1.041E-04 Weight  1.783E-02 Projection  6.316E-05
:INFO :  Singular value  2.293E-05 Weight  8.798E-04 Projection  7.012E-06
:INFO :  Singular value  6.005E-06 Weight  6.039E-05 Projection  4.905E-07
:INFO :  Singular value  8.039E-11 Weight  1.082E-14 Projection -3.253E-12
:RANK :  ACTIVE   6.94/11 =  63.13 % ; YY RANK   6.86/11 =  62.33 %
 
:DLIM :  Beta Active  9.347E-01
:BLIM :  VZERO Control Off
:TRUST:  Step 1.81E+00  Charge 2.74E-03 (e) CTO  2.74E-03 (e) PW  3.18E-03 (e)
:DIRM :  MEMORY 11/8  SCALE   1.000 RED  2.09 PRED  0.37 NEXT  0.08 BETA  0.93
:TRAVE:  Charge 7.30E-04 (e) CTO  7.30E-04 (e) PW  4.44E-04 (e)
:DIRP :  |MSR1|= 3.456E-05 |PRATT|= 1.278E-04 ANGLE= 100.1 DEGREES
:DIRQ :  |MSR1|= 1.209E-04 |PRATT|= 1.261E-03 ANGLE= 102.6 DEGREES
:DIRT :  |MSR1|= 1.258E-04 |PRATT|= 1.268E-03 ANGLE= 102.3 DEGREES
:MIX  :   MSE1   REGULARIZATION:  7.73E-04 GREED: 0.20756  Newton 1.00  0.0992                
     
       CHARGES OF MIXED CHARGE DENSITY
:CTO   : INTERSTITIAL CHARGE =     3.008148
:CPC   : PW Pseudocharge     =     7.508608
:CTO001: CHARGE SPHERE  1    =    55.991852

:NEC03: NUCLEAR AND ELECTRONIC CHARGE     59.00000    59.00000

PW CHANGE     H    K    L      Current       Change    Residue
:PTO001:      0    0    0  3.55223582E-02 -3.503E-07  3.092E-06
:PTO002:     -1   -1   -1 -1.19513278E-01  9.899E-07 -1.399E-07
:PTO003:      0    0   -2  7.26410458E-02 -9.572E-07 -5.174E-07
:PTO004:      0   -2   -2  6.82755484E-02 -9.793E-07 -1.263E-06
:PTO005:     -1   -1   -3 -7.19695459E-02  1.888E-06  2.877E-06
:PTO006:     -2   -2   -2  1.94067877E-02 -4.891E-07 -5.642E-07
:PTO007:      0    0   -4  4.74185391E-03 -5.155E-07 -8.822E-07
:PTO008:     -1   -3   -3 -6.40316410E-03  2.224E-07  2.903E-07
:PTO009:      0   -2   -4  2.83991945E-03 -5.676E-07 -1.044E-06
:PTO010:     -2   -2   -4 -4.21387397E-03 -3.078E-07 -2.371E-07
:PTO011:     -3   -3   -3  2.02936974E-03  5.244E-08 -1.046E-07
:PTO012:     -1   -1   -5  6.59310716E-03  7.658E-07  1.211E-06

:ENE  : ********** TOTAL ENERGY IN Ry =       -18472.10778539


------- case.scf0 --------
 Flat Integration
 New Mode for Coulomb Integral
 Consistent 3/8+Simpson combinations
 Extension of core to zero
 LDM version in phi
 Fifth-order quadrature in outwin


            ---------
:ITE077: 77. ITERATION
            ---------

:NATO :    1 INDEPENDENT AND    1 TOTAL ATOMS IN UNITCELL
       SUBSTANCE: blebleble                                                   

       LATTICE                      = F   
:POT  : POTENTIAL OPTION EX_LDA EC_LDA VX_LDA VC_LDA
:LAT  : LATTICE CONSTANTS= 10.57986 10.57986 10.57986    1.571    1.571    1.571
:VOL  : UNIT CELL VOLUME =     296.06019
       MODE OF CALCULATION IS       = RELA
       NON-SPINPOLARIZED CALCULATION
:IFFT  : FFT-parameters:   90   90   90 Factor: 2.00


   CONVERGENCE PARAMETER FOR PSEUDOCHARGE: NCON=  9
   MAXIMAL VALUE OF RMT(JATOM)*ABSK(NKK) : RK  =29.98955


:VKCOUL :  VK-COUL convergence: 0.427E-07
       ATOMNUMBER=  1 Pr         VCOUL-ZERO =  0.76014E-01
:FIT001: LUSE= 13 SIGMA OF V-XC FIT FOR ATOM  1  0.1195176E-04
:FIT001: LUSE= 13 SIGMA OF V-XC FIT FOR ATOM  1  0.1195176E-04
:DEN  : DENSITY INTEGRAL  =         -7060.98376773   (Ry)
       ELS_POTENTIAL_AT Z=0 and Z=0.5:  -2.31929  -2.31929
       ELS_POTENTIAL_AT Y=0 and Y=0.5:   0.00000   0.00000
:VZERO:v0,v0c,v0x  -3.24151  -2.31929  -0.92223 v5,v5c,v5x  -3.24151  -2.31929  -0.92223
:VZERY:v0,v0c,v0x  -0.65427   0.00000  -0.65427 v5,v5c,v5x  -0.65427   0.00000  -0.65427
:VZERX:v0,v0c,v0x  -0.65427   0.00000  -0.65427 v5,v5c,v5x  -0.65427   0.00000  -0.65427

------- case.scf1 --------
:LMAX-WF:   10   Non-Spherical LMAX:   4

          ATOMIC SPHERE DEPENDENT PARAMETERS FOR ATOM  Pr        
:e__0001: OVERALL ENERGY PARAMETER IS    0.2429
          OVERALL BASIS SET ON ATOM IS LAPW
:E0_0001: E( 0)=    0.2429
             APW+lo
:E0_0001: E( 0)=   -2.2743   E(BOTTOM)=   -2.653   E(TOP)=   -1.896  4  5   155
             LOCAL ORBITAL
:E1_0001: E( 1)=    0.6429
             APW+lo
:E1_0001: E( 1)=   -0.8842   E(BOTTOM)=   -1.527   E(TOP)=   -0.241  3  4   162
             LOCAL ORBITAL
:E3_0001: E( 3)=    0.3922   E(BOTTOM)=    0.252   E(TOP)=    0.532  0  1   115
             APW+lo
:E2_0001: E( 2)=    0.2429   E(BOTTOM)=    0.052   E(TOP)= -200.000  2 -1   101
             APW+lo

       K=   0.00000   0.00000   0.00000            1
:RKM  : MATRIX SIZE   201LOs:  20  RKM= 8.40  WEIGHT= 1.00  PGR:    
       EIGENVALUES ARE:
:EIG00001:      -2.2283949   -0.8755761   -0.8755761   -0.8755761    0.1949666
:EIG00006:       0.4022303    0.4125986    0.4125986    0.4125986    0.4280059
:EIG00011:       0.4280059    0.4280059    0.5554982    0.5554982    0.5554982
:EIG00016:       0.6884764    0.6884764    1.0803448    1.2734226    1.2734226
:EIG00021:       1.2734226    1.3841885    1.8912554    1.8912554    1.8912554
:EIG00026:       1.9279280    1.9279280    1.9279280    2.1713357    2.1713357
:EIG00031:       2.4337323    2.6289419    2.6289419    2.6289419    3.0214409
:EIG00036:       3.0214409    3.2436554    3.2436554    3.2436554    3.2714138
:EIG00041:       3.2714138    3.2714138    3.4556782    3.4556782    3.4556782
:EIG00046:       3.5984290    3.6942370    3.6942370    3.6942370    3.7725478
 
:EIG00051:       3.7725478    3.7725478    3.7728483    3.7728483    3.7728483
:EIG00056:       3.7862480    3.7862480    3.8678389    3.9563975    4.0864067
:EIG00061:       4.0864067    4.0864067    4.1241028    4.1241028    4.1241028
:EIG00066:       4.2683709    5.2460638    5.2460638    5.2762580    5.4898575
:EIG00071:       5.4898575    5.4898575    5.8338573    5.8338573    5.9730603
:EIG00076:       5.9730603    5.9730603    6.0707368    6.0707368    6.0707368
:EIG00081:       6.3753134    6.3753134    6.3753134    6.4287023    6.4287023
:EIG00086:       6.4287023    6.4825257    6.4825257    6.5231484    6.5231484
:EIG00091:       6.5231484    6.6190973    6.6190973    6.6190973    6.6230781
:EIG00096:       6.6230781    6.6230781    6.6580509    6.7736231    6.7736231
 
:EIG00101:       6.7927446    6.8754313    6.8754313    6.8754313    6.9088705
:EIG00106:       6.9088705    6.9088705    6.9091909    6.9091909    6.9091909
:EIG00111:       6.9677745    6.9677745    7.1362808    7.1723925    7.4529511
:EIG00116:       7.4529511    7.4529511    7.7277265    7.7277265    7.7277265
       ********************************************************

:KPT   :      NUMBER OF K-POINTS:   165

------- case.scfso --------
   0.0   0.0 angle (M,z), angle (M,x) deg
 
        SPIN-ORBIT EIGENVALUES:
     K=   0.00000   0.00000   0.00000            1
      MATRIX SIZE=  240   WEIGHT= 1.00
     EIGENVALUES ARE:
          -2.2283949   -2.2283949   -1.0214646   -1.0214646   -0.8072828
          -0.8072828   -0.8072828   -0.8072828    0.1949666    0.1949666
           0.3954700    0.3954700    0.4003315    0.4003315    0.4003315
           0.4003315    0.4244942    0.4244942    0.4305358    0.4305358
           0.4363566    0.4363566    0.4363566    0.4363566    0.5517600
           0.5517600    0.5517600    0.5517600    0.5616516    0.5616516
           0.6889268    0.6889268    0.6889268    0.6889268    1.0803851
           1.0803851    1.2675737    1.2675737    1.2760394    1.2760394

           1.2760394    1.2760394    1.3841885    1.3841885    1.8647878
           1.8647878    1.8865984    1.8865984    1.8865984    1.8865984
           1.9000963    1.9000963    1.9605263    1.9605263    1.9605263
           1.9605263    2.1716149    2.1716149    2.1716149    2.1716149
           2.4337323    2.4337323    2.6285223    2.6285223    2.6291654
           2.6291654    2.6291654    2.6291654    3.0214219    3.0214219
           3.0214219    3.0214219    3.2424214    3.2424214    3.2424214
           3.2424214    3.2454743    3.2454743    3.2463403    3.2463403

           3.2854917    3.2854917    3.2854917    3.2854917    3.4556721
           3.4556721    3.4556812    3.4556812    3.4556812    3.4556812
           3.5984290    3.5984290    3.6942018    3.6942018    3.6942018
           3.6942018    3.6943115    3.6943115    3.7719436    3.7719436
           3.7719436    3.7719436    3.7724086    3.7724086    3.7731665
           3.7731665    3.7731665    3.7731665    3.7735729    3.7735729
           3.7862480    3.7862480    3.7862480    3.7862480    3.8678476
           3.8678476    3.9563975    3.9563975    4.0863513    4.0863513

           4.0863513    4.0863513    4.0865209    4.0865209    4.1233052
           4.1233052    4.1245429    4.1245429    4.1245429    4.1245429
           4.2683739    4.2683739
       ********************************************************

------- case.scf2 --------
:GMA  : POTENTIAL AND CHARGE CUT-OFF  12.00 Ry**.5




:POS001: at.nr.   1 position = 0.00000 0.00000 0.50000  multiplicity =  1

       lmmax  5
       lm=   0 0  4 0  4 4  6 0  6 4
:FER gutzwiller fermi energy   0.45821
:EORB         -0.183021206
:SUM sum of gutz band energies         -7.756190924

:CHA001: total charge inside sphere   1 =     9.992910
:PCS001: partial charges sphere =  1 s,p,d,f,      d-eg,d-t2g 
:QTL001: 2.0228 5.3808 0.5886 2.0005 0.0000 0.0000 0.0000 0.2090 0.3796 0.0000 0.0000 0.0000

:CHA  : total charge inside unit cell =       6.500000

------- case.scfc --------

        1.ATOM      Pr                   14 CORE STATES
:1S 001: 1S               -3067.200288742 Ry
:2S 001: 2S                -492.954599165 Ry
:2PP001: 2P*               -466.053572800 Ry
:2P 001: 2P                -430.656149050 Ry
:3S 001: 3S                -106.044470687 Ry
:3PP001: 3P*                -94.582307145 Ry
:3P 001: 3P                 -87.574477144 Ry
:3DD001: 3D*                -67.501604593 Ry
:3D 001: 3D                 -65.990038155 Ry
:4S 001: 4S                 -20.722549711 Ry
:4PP001: 4P*                -16.429363195 Ry
:4P 001: 4P                 -14.902009530 Ry
:4DD001: 4D*                 -7.834970775 Ry
:4D 001: 4D                  -7.565572181 Ry

------- case.scfm --------
:CINT001 Core Integral Atom   1   45.999523

       DENSITY AT NUCLEUS
        JATOM        VALENCE       SEMI-CORE          CORE           TOTAL
:RTO001:   1      649.604540        0.000000   656824.359246   657473.963786
     
       CHARGES OF NEW CHARGE DENSITY
:NTO   : INTERSTITIAL CHARGE =     3.007010
:NPC   : PW Pseudocharge     =     7.507101
:NTO001: CHARGE SPHERE  1    =    55.992433

:NEC01: NUCLEAR AND ELECTRONIC CHARGE     59.00000    58.99944
     
       CHARGES OF OLD CHARGE DENSITY
:OTO   : INTERSTITIAL CHARGE =     3.008148
:OPC   : PW Pseudocharge     =     7.508608
:OTO001: CHARGE SPHERE  1    =    55.991852

:NEC02: NUCLEAR AND ELECTRONIC CHARGE     59.00000    59.00000
     
       CONVERGENCE TEST
:DTO001: DIFFERENCE IN SPHERE  1 =  0.0009832

:DIS  :  CHARGE DISTANCE       ( 0.0009832 for atom    1 spin 1)      0.0009832
 PW Mixed is           60
 
******************************************************
* MULTISECANT MIXING VER9 RELEASE 10.4.0              *
* Standard Mode with controls                        *
* Fixed density scale                                *
* Regularization       1.000E-04                     *
* Trust Upper Limit    5.000E+00                     *
* Max Number of Memory Steps    8                    *
******************************************************
 
:PWTMP   2.3061E+02  1.2500E+02  2.9606E+02
:PLANE:  PW TOTAL      2.6866 DISTAN   1.01E-04  3.75E-03 %
:CHARG:  CLM/ATOM    977.1909 DISTAN   1.02E-03  1.04E-04 %
 
Step History
        DMIX         DMIXT        Red     Pred      Trust     Lambda    MagRel    MagAbs     Beta
 39   1.5972E-02   5.1995E-03  4.43E-01  5.47E-01  5.84E-01  6.71E-01  2.67E-01  1.03E-02  1.00E+00
 40   1.2152E-02   1.0972E-02  1.26E+00  5.47E-01  7.30E-01  5.78E-01  7.30E-01  1.24E-02  8.96E-01
 41   1.0008E-02   1.0008E-02  3.49E-01  4.28E-01  6.25E-01  1.33E-01  3.30E-01  7.08E-03  7.17E-01
 42   1.0982E-02   1.0982E-02  9.15E-01  9.08E-01  7.81E-01  8.11E-01  2.64E-01  1.98E-03  8.96E-01
 43   1.0736E-02   1.0736E-02  1.57E+00  7.93E-01  9.82E-01  2.57E-01  6.58E-01  4.51E-03  1.00E+00
 44   2.6841E-02   2.6841E-02  5.50E-01  1.87E-01  8.27E-01  3.13E-01  3.55E-01  3.82E-03  8.85E-01
 45   6.7103E-02   6.7103E-02  6.90E-01  7.80E-02  1.03E+00  1.00E+00  4.84E-01  2.87E-03  1.00E+00
 46   5.4164E-02   5.4164E-02  9.59E-01  2.15E-01  1.38E+00  5.56E-01  3.20E-01  1.31E-03  8.00E-01
 47   1.0937E-01   9.1269E-02  4.60E+00  1.31E-01  1.99E+00  6.24E-01  1.99E+00  7.79E-03  1.00E+00
 48   8.3976E-02   8.3976E-02  3.36E-02  2.01E-01  1.49E+00  1.00E+00  2.94E-01  5.29E-03  8.00E-01
 49   2.0994E-01   2.0994E-01  2.09E+00  3.65E-01  1.99E+00  8.90E-01  1.73E+00  1.05E-03  7.48E-01
 50   2.0756E-01   2.0756E-01 -1.00E+00  8.32E-02  1.81E+00  1.00E+00  9.92E-02  1.26E-04  9.35E-01
:JACOBIANS    1.069E+00   4.200E+00
  
:NORMS:  1/Froebius, Min, Max, Used   0.8686E+00  0.5058E+00  0.1006E+01  0.9334E+00
:INFO :  Number of Memory Steps   11 Skipping   38
:INFO :  SLambda=    1.2229377051  Max    1.2229377051
:PREDicted Charge, CTotal, PW Trust    2.181E-04   2.181E-04   1.456E-04
:PREDicted DMix, Beta, BLim   3.3294E-02  1.9648E+00  1.3541E+00

Eigenvalues, unscaled except for SY+YY
   #     SY Real        SY Imag          SS             YY         SY+YY Real      SY+YY Imag
   1   1.459150E+00   1.566475E+00   6.723439E+00   7.717686E+00   9.417816E+00   0.000000E+00
   2   1.459150E+00  -1.566475E+00   1.107805E+00   2.676480E+00   4.515106E+00   0.000000E+00
   3   5.079684E-01   0.000000E+00   4.371413E-01   5.369059E-01   1.153409E+00   0.000000E+00
   4   5.097611E-02   0.000000E+00   2.405339E-02   5.349901E-02   1.452826E-01   0.000000E+00
   5   7.538890E-03   0.000000E+00   4.955017E-03   1.101851E-02   2.524695E-02   0.000000E+00
   6   2.323180E-03   0.000000E+00   1.030749E-03   2.981474E-03   6.148136E-03   0.000000E+00
   7   2.746576E-04   0.000000E+00   5.867445E-05   1.200158E-03   1.580827E-03   0.000000E+00
   8   2.820875E-05   0.000000E+00   7.455115E-06   1.920946E-04   2.563189E-04   0.000000E+00
   9   1.481151E-06   0.000000E+00   6.728557E-07   2.272843E-05   2.921114E-05   0.000000E+00
  10   6.680466E-07   2.293633E-07   4.051720E-08   1.100440E-05   3.457275E-06   0.000000E+00
  11   6.680466E-07  -2.293633E-07   2.721772E-08   2.795565E-06   1.037554E-05   0.000000E+00
 
:INFO :  Singular value  1.248E+01 Weight  1.000E+00 Projection -3.666E-04
:INFO :  Singular value  4.247E+00 Weight  1.000E+00 Projection  2.901E-05
:INFO :  Singular value  1.185E+00 Weight  1.000E+00 Projection -1.360E-05
:INFO :  Singular value  1.190E-01 Weight  1.000E+00 Projection  9.468E-05
:INFO :  Singular value  2.566E-02 Weight  9.991E-01 Projection -1.574E-04
:INFO :  Singular value  7.259E-03 Weight  9.888E-01 Projection  2.011E-04
:INFO :  Singular value  1.639E-03 Weight  8.185E-01 Projection  1.319E-03
:INFO :  Singular value  2.123E-04 Weight  7.032E-02 Projection -8.093E-05
:INFO :  Singular value  3.250E-05 Weight  1.770E-03 Projection -1.135E-05
:INFO :  Singular value  1.256E-05 Weight  2.650E-04 Projection -1.154E-06
:INFO :  Singular value  2.375E-06 Weight  9.472E-06 Projection  1.872E-07
:RANK :  ACTIVE   6.88/11 =  62.53 % ; YY RANK   6.70/11 =  60.90 %
 
:BLIM :  VZERO Control Off
:TRUST:  Step 2.25E+00  Charge 2.74E-03 (e) CTO  2.74E-03 (e) PW  4.27E-03 (e)
:DIRM :  MEMORY 11/8  SCALE   1.000 RED  0.81 PRED  0.08 NEXT  0.04 
:TRAVE:  Charge 4.74E-04 (e) CTO  4.74E-04 (e) PW  2.82E-04 (e)
:DIRP :  |MSR1|= 4.196E-05 |PRATT|= 1.007E-04 ANGLE=  33.0 DEGREES
:DIRQ :  |MSR1|= 4.673E-04 |PRATT|= 1.015E-03 ANGLE=  36.6 DEGREES
:DIRT :  |MSR1|= 4.692E-04 |PRATT|= 1.020E-03 ANGLE=  36.6 DEGREES
:MIX  :   MSE1   REGULARIZATION:  7.72E-04 GREED: 0.10496  Newton 1.00  0.4598                
     
       CHARGES OF MIXED CHARGE DENSITY
:CTO   : INTERSTITIAL CHARGE =     3.007931
:CPC   : PW Pseudocharge     =     7.508538
:CTO001: CHARGE SPHERE  1    =    55.992069

:NEC03: NUCLEAR AND ELECTRONIC CHARGE     59.00000    59.00000

PW CHANGE     H    K    L      Current       Change    Residue
:PTO001:      0    0    0  3.55213883E-02 -9.699E-07 -2.356E-06
:PTO002:     -1   -1   -1 -1.19512750E-01  5.286E-07 -1.052E-06
:PTO003:      0    0   -2  7.26411076E-02  6.178E-08  7.258E-07
:PTO004:      0   -2   -2  6.82752159E-02 -3.325E-07  1.019E-06
:PTO005:     -1   -1   -3 -7.19686703E-02  8.756E-07 -1.598E-06
:PTO006:     -2   -2   -2  1.94063042E-02 -4.835E-07  3.049E-07
:PTO007:      0    0   -4  4.74174993E-03 -1.040E-07  1.199E-07
:PTO008:     -1   -3   -3 -6.40324670E-03 -8.260E-08 -1.838E-06
:PTO009:      0   -2   -4  2.84020361E-03  2.842E-07  1.672E-06
:PTO010:     -2   -2   -4 -4.21362621E-03  2.478E-07  1.028E-06
:PTO011:     -3   -3   -3  2.02934472E-03 -2.502E-08 -1.451E-07
:PTO012:     -1   -1   -5  6.59269702E-03 -4.101E-07 -5.984E-07

:ENE  : ********** TOTAL ENERGY IN Ry =       -18472.10778913

