
:LABEL1: Calculations in /home/ykent/GWIEN/example/Pr/V7/case
:LABEL2: on didymium-2.cmpgroup.ameslab.gov at Wed Jul  8 16:00:25 CDT 2020
:LABEL3: using WIEN2k_19.1 (Release 25/6/2019) in /home/ykent/opt/src/WIEN2k_19.1
:LABEL4: using the command: run_lapw -cc 0.0001
 Flat Integration
 New Mode for Coulomb Integral
 Consistent 3/8+Simpson combinations
 Extension of core to zero
 LDM version in phi
 Fifth-order quadrature in outwin


            ---------
:ITE001:  1. ITERATION
            ---------

:NATO :    1 INDEPENDENT AND    1 TOTAL ATOMS IN UNITCELL
       SUBSTANCE: blebleble                                                   

       LATTICE                      = F   
:POT  : POTENTIAL OPTION EX_LDA EC_LDA VX_LDA VC_LDA
:LAT  : LATTICE CONSTANTS=  9.04565  9.04565  9.04565    1.571    1.571    1.571
:VOL  : UNIT CELL VOLUME =     185.03757
       MODE OF CALCULATION IS       = RELA
       NON-SPINPOLARIZED CALCULATION
:IFFT  : FFT-parameters:   72   72   72 Factor: 2.00


   CONVERGENCE PARAMETER FOR PSEUDOCHARGE: NCON=  9
   MAXIMAL VALUE OF RMT(JATOM)*ABSK(NKK) : RK  =29.87623


:VKCOUL :  VK-COUL convergence: 0.182E-05
       ATOMNUMBER=  1 Pr         VCOUL-ZERO =  0.46122E+00
:FIT001: LUSE= 13 SIGMA OF V-XC FIT FOR ATOM  1  0.3646697E-05
:FIT001: LUSE= 13 SIGMA OF V-XC FIT FOR ATOM  1  0.3646697E-05
:DEN  : DENSITY INTEGRAL  =         -7089.36374062   (Ry)
       ELS_POTENTIAL_AT Z=0 and Z=0.5:  -2.60065  -2.60065
       ELS_POTENTIAL_AT Y=0 and Y=0.5:   0.00000   0.00000
:VZERO:v0,v0c,v0x  -3.62269  -2.60065  -1.02204 v5,v5c,v5x  -3.62269  -2.60065  -1.02204
:VZERY:v0,v0c,v0x  -0.78373   0.00000  -0.78373 v5,v5c,v5x  -0.78373   0.00000  -0.78373
:VZERX:v0,v0c,v0x  -0.78373   0.00000  -0.78373 v5,v5c,v5x  -0.78373   0.00000  -0.78373
:LMAX-WF:   10   Non-Spherical LMAX:   4

          ATOMIC SPHERE DEPENDENT PARAMETERS FOR ATOM  Pr        
:e__0001: OVERALL ENERGY PARAMETER IS    0.3000
          OVERALL BASIS SET ON ATOM IS LAPW
:E0_0001: E( 0)=    0.3000
             APW+lo
:E0_0001: E( 0)=   -1.8249   E(BOTTOM)=   -2.214   E(TOP)=   -1.436  4  5   202
             LOCAL ORBITAL
:E1_0001: E( 1)=    0.7000
             APW+lo
:E1_0001: E( 1)=   -0.4440   E(BOTTOM)=   -1.102   E(TOP)=    0.214  3  4   194
             LOCAL ORBITAL
:E3_0001: E( 3)=    0.7147   E(BOTTOM)=    0.715   E(TOP)= -200.000  0 -1   103
             APW+lo
:E2_0001: E( 2)=    0.4623   E(BOTTOM)=    0.462   E(TOP)= -200.000  2 -1    97
             APW+lo

       K=   0.00000   0.00000   0.00000            1
:RKM  : MATRIX SIZE   133LOs:  20  RKM= 7.77  WEIGHT= 1.00  PGR:    
       EIGENVALUES ARE:
:EIG00001:      -1.8086508   -0.3947536   -0.3947536   -0.3947536    0.5523582
:EIG00006:       0.8277088    0.8677496    0.8677496    0.8677496    0.9157062
:EIG00011:       0.9157062    0.9157062    0.9354466    0.9354466    0.9354466
:EIG00016:       1.1779516    1.1779516    1.6078808    1.8855323    1.8855323
:EIG00021:       1.8855323    1.9574220
       ********************************************************

:KPT   :      NUMBER OF K-POINTS:   165
:GAP (global)   :    0.0    Ry =     0.0   eV (metal)
         Bandranges (emin - emax) and occupancy:
:BAN00001:   1   -1.808651   -1.768301  2.00000000
:BAN00002:   2   -0.576509   -0.394754  2.00000000
:BAN00003:   3   -0.515092   -0.394754  2.00000000
:BAN00004:   4   -0.464364   -0.394754  2.00000000
:BAN00005:   5    0.552358    0.772229  2.00000000
:BAN00006:   6    0.658877    0.844315  2.00000000
:BAN00007:   7    0.801459    0.878365  0.99875436
:BAN00008:   8    0.850471    0.878833  0.00126477
:BAN00009:   9    0.867652    0.888874  0.00000000
:BAN00010:  10    0.877705    0.915706  0.00000000
:BAN00011:  11    0.879758    0.915706  0.00000000
:BAN00012:  12    0.890037    0.916020  0.00000000
:BAN00013:  13    0.901826    0.973287  0.00000000
        Energy to separate low and high energystates:    0.50236


:NOE  : NUMBER OF ELECTRONS          =   13.000

:FER  : F E R M I - ENERGY(TETRAH.M.)=   0.8507805278
:GMA  : POTENTIAL AND CHARGE CUT-OFF  12.00 Ry**.5

:POS001: ATOM    1 X,Y,Z = 0.00000 0.00000 0.50000  MULT= 1  ZZ= 59.000  Pr        

       LMMAX  5
       LM=   0 0  4 0  4 4  6 0  6 4

:CHA001: TOTAL VALENCE CHARGE INSIDE SPHERE   1 =   9.7493    (RMT=  2.5000 )
:PCS001: PARTIAL CHARGES SPHERE =  1 S,P,D,F,      D-EG,D-T2G 
:QTL001: 2.0534 5.3459 1.0627 1.2856 0.0000 0.0000 0.0000 0.3763 0.6865 0.0000 0.0000 0.0000
        Q-s-low E-s-low   Q-p-low E-p-low   Q-d-low E-d-low   Q-f-low E-f-low
:EPL001:  1.9220 -1.7755    5.2186 -0.4714    0.0066 -0.5000    0.0019 -0.4998
        Q-s-hi  E-s-hi    Q-p-hi  E-p-hi    Q-d-hi  E-d-hi    Q-f-hi  E-f-hi 
:EPH001:  0.1314  0.7109    0.1273  0.7608    1.0562  0.7435    1.2837  0.8114

:CHA  : TOTAL VALENCE CHARGE INSIDE UNIT CELL =      13.000019

:SUM  : SUM OF EIGENVALUES =          -2.604557914



   QTL-B VALUE .EQ.    2.46944   in Band of energy    0.86785   ATOM=    1   L=  3
    Most likely no ghostbands, but adjust Energy-parameters for this ATOM and L


:WARN : QTL-B value eq.   2.47 in Band of energy   0.86785  ATOM=    1  L=  3
:WARN : You should change the E-parameter for this atom and L-value in case.in1 (or try the -in1new switch)

        1.ATOM      Pr                   14 CORE STATES
:1S 001: 1S               -3066.678402014 Ry
:2S 001: 2S                -492.444184477 Ry
:2PP001: 2P*               -465.541790982 Ry
:2P 001: 2P                -430.144998334 Ry
:3S 001: 3S                -105.542341434 Ry
:3PP001: 3P*                -94.079714482 Ry
:3P 001: 3P                 -87.072389022 Ry
:3DD001: 3D*                -66.998611664 Ry
:3D 001: 3D                 -65.487203806 Ry
:4S 001: 4S                 -20.230941397 Ry
:4PP001: 4P*                -15.938242916 Ry
:4P 001: 4P                 -14.411669362 Ry
:4DD001: 4D*                 -7.346470331 Ry
:4D 001: 4D                  -7.077396314 Ry
:CINT001 Core Integral Atom   1   45.999496

       DENSITY AT NUCLEUS
        JATOM        VALENCE       SEMI-CORE          CORE           TOTAL
:RTO001:   1      655.076370        0.000000   656820.054162   657475.130533
     
       CHARGES OF NEW CHARGE DENSITY
:NTO   : INTERSTITIAL CHARGE =     3.250752
:NPC   : PW Pseudocharge     =     8.061256
:NTO001: CHARGE SPHERE  1    =    55.748762

:NEC01: NUCLEAR AND ELECTRONIC CHARGE     59.00000    58.99951
     
       CHARGES OF OLD CHARGE DENSITY
:OTO   : INTERSTITIAL CHARGE =     2.698156
:OPC   : PW Pseudocharge     =     7.142075
:OTO001: CHARGE SPHERE  1    =    56.302473

:NEC02: NUCLEAR AND ELECTRONIC CHARGE     59.00000    59.00063
     
       CONVERGENCE TEST
:DTO001: DIFFERENCE IN SPHERE  1 =  1.0332205

:DIS  :  CHARGE DISTANCE       ( 1.0332205 for atom    1 spin 1)      1.0332205
 PW Mixed is           41
 
******************************************************
* MULTISECANT MIXING VER9 RELEASE 10.4.0              *
* Standard Mode with controls                        *
* Fixed density scale                                *
* Regularization       1.000E-04                     *
* Trust Upper Limit    5.000E+00                     *
* Max Number of Memory Steps    8                    *
******************************************************
 
:PWTMP   1.1959E+02  1.2500E+02  1.8504E+02
:PLANE:  PW TOTAL      3.0487 DISTAN   4.77E-01  1.56E+01 %
:CHARG:  CLM/ATOM    977.2594 DISTAN   1.07E+00  1.10E-01 %
INFO: Reducing dbase  2.50000E-02 1.03322E+00 2.45948E-02
 
Step History
        DMIX         DMIXT        Red     Pred      Trust     Lambda    MagRel    MagAbs     Beta
  1   3.5000E-02   3.5000E-02 -1.00E+00  1.00E+00 -1.00E+01  1.00E+00  3.50E-02  3.50E-02  1.00E+00
:INFO :  Note, Pratt in use
INFO: Reducing dbase  2.45948E-02 1.03322E+00 2.41962E-02
:TRUST:  Step 3.75E-02  Charge 7.50E-02 (e) CTO  2.50E-01 (e) PW  3.50E-01 (e)
:DIRM :  MEMORY  0/ 8 SCALE   1.000
Performing Pseudo Compensation
Final Pseudo Compensation Rescaling     1.00000E+00
:MIX  :   PRATT  REGULARIZATION:  1.00E-04 GREED: 0.02500                  
     
       CHARGES OF MIXED CHARGE DENSITY
:CTO   : INTERSTITIAL CHARGE =     2.711370
:CPC   : PW Pseudocharge     =     7.726638
:CTO001: CHARGE SPHERE  1    =    56.288630

:NEC03: NUCLEAR AND ELECTRONIC CHARGE     59.00000    59.00000

PW CHANGE     H    K    L      Current       Change    Residue
:PTO001:      0    0    0  5.64102077E-02  3.243E-03  7.975E-03
:PTO002:     -1   -1   -1 -1.49581688E-01 -1.650E-02 -1.863E-02
:PTO003:      0    0   -2  8.52414665E-02  1.065E-02  9.739E-03
:PTO004:      0   -2   -2  5.64509746E-02  1.163E-02  1.493E-02
:PTO005:     -1   -1   -3 -4.20415549E-02 -1.381E-02 -1.215E-02
:PTO006:     -2   -2   -2  9.38592615E-03  3.824E-03  3.126E-03
:PTO007:      0    0   -4 -2.39094054E-04  1.199E-03 -3.919E-05
:PTO008:     -1   -3   -3  7.49306316E-03 -2.008E-03 -1.814E-03
:PTO009:      0   -2   -4 -8.32034469E-03  1.293E-03  4.545E-04
:PTO010:     -2   -2   -4 -8.25698277E-03 -5.719E-04 -2.128E-03
:PTO011:     -3   -3   -3  2.26035325E-03  4.295E-04  1.186E-03
:PTO012:     -1   -1   -5  6.77384941E-03  1.281E-03  3.268E-03

:ENE  : *WARNING** TOTAL ENERGY IN Ry =       -18472.16368951

 Flat Integration
 New Mode for Coulomb Integral
 Consistent 3/8+Simpson combinations
 Extension of core to zero
 LDM version in phi
 Fifth-order quadrature in outwin


            ---------
:ITE002:  2. ITERATION
            ---------

:NATO :    1 INDEPENDENT AND    1 TOTAL ATOMS IN UNITCELL
       SUBSTANCE: blebleble                                                   

       LATTICE                      = F   
:POT  : POTENTIAL OPTION EX_LDA EC_LDA VX_LDA VC_LDA
:LAT  : LATTICE CONSTANTS=  9.04565  9.04565  9.04565    1.571    1.571    1.571
:VOL  : UNIT CELL VOLUME =     185.03757
       MODE OF CALCULATION IS       = RELA
       NON-SPINPOLARIZED CALCULATION
:IFFT  : FFT-parameters:   72   72   72 Factor: 2.00


   CONVERGENCE PARAMETER FOR PSEUDOCHARGE: NCON=  9
   MAXIMAL VALUE OF RMT(JATOM)*ABSK(NKK) : RK  =29.87623


:VKCOUL :  VK-COUL convergence: 0.448E-07
       ATOMNUMBER=  1 Pr         VCOUL-ZERO =  0.47376E+00
:FIT001: LUSE= 13 SIGMA OF V-XC FIT FOR ATOM  1  0.3763272E-05
:FIT001: LUSE= 13 SIGMA OF V-XC FIT FOR ATOM  1  0.3763272E-05
:DEN  : DENSITY INTEGRAL  =         -7088.45256144   (Ry)
       ELS_POTENTIAL_AT Z=0 and Z=0.5:  -2.67579  -2.67579
       ELS_POTENTIAL_AT Y=0 and Y=0.5:   0.00000   0.00000
:VZERO:v0,v0c,v0x  -3.72339  -2.67579  -1.04760 v5,v5c,v5x  -3.72339  -2.67579  -1.04760
:VZERY:v0,v0c,v0x  -0.79099   0.00000  -0.79099 v5,v5c,v5x  -0.79099   0.00000  -0.79099
:VZERX:v0,v0c,v0x  -0.79099   0.00000  -0.79099 v5,v5c,v5x  -0.79099   0.00000  -0.79099
:LMAX-WF:   10   Non-Spherical LMAX:   4

          ATOMIC SPHERE DEPENDENT PARAMETERS FOR ATOM  Pr        
:e__0001: OVERALL ENERGY PARAMETER IS    0.5000
          OVERALL BASIS SET ON ATOM IS LAPW
:E0_0001: E( 0)=    0.5000
             APW+lo
:E0_0001: E( 0)=   -1.8238   E(BOTTOM)=   -2.211   E(TOP)=   -1.436  4  5   202
             LOCAL ORBITAL
:E1_0001: E( 1)=    0.9000
             APW+lo
:E1_0001: E( 1)=   -0.4412   E(BOTTOM)=   -1.097   E(TOP)=    0.214  3  4   201
             LOCAL ORBITAL
:E3_0001: E( 3)=    0.7096   E(BOTTOM)=    0.710   E(TOP)= -200.000  0 -1    86
             APW+lo
:E2_0001: E( 2)=    0.5000   E(BOTTOM)=    0.469   E(TOP)= -200.000  2 -1    78
             APW+lo

       K=   0.00000   0.00000   0.00000            1
:RKM  : MATRIX SIZE   133LOs:  20  RKM= 7.77  WEIGHT= 1.00  PGR:    
       EIGENVALUES ARE:
:EIG00001:      -1.8070202   -0.3914283   -0.3914283   -0.3914283    0.5629812
:EIG00006:       0.8232275    0.8612475    0.8612475    0.8612475    0.9072543
:EIG00011:       0.9072543    0.9072543    0.9446285    0.9446285    0.9446285
:EIG00016:       1.1858807    1.1858807    1.6154047    1.8950572    1.8950572
:EIG00021:       1.8950572    1.9703521
       ********************************************************

:KPT   :      NUMBER OF K-POINTS:   165
:GAP (global)   :    0.0    Ry =     0.0   eV (metal)
         Bandranges (emin - emax) and occupancy:
:BAN00001:   1   -1.807020   -1.767178  2.00000000
:BAN00002:   2   -0.571243   -0.391428  2.00000000
:BAN00003:   3   -0.510431   -0.391428  2.00000000
:BAN00004:   4   -0.460241   -0.391428  2.00000000
:BAN00005:   5    0.562981    0.779010  2.00000000
:BAN00006:   6    0.669184    0.848345  1.99998947
:BAN00007:   7    0.806108    0.871812  0.99491925
:BAN00008:   8    0.846554    0.872376  0.00509128
:BAN00009:   9    0.861209    0.882033  0.00000000
:BAN00010:  10    0.872215    0.907254  0.00000000
:BAN00011:  11    0.875070    0.907254  0.00000000
:BAN00012:  12    0.882555    0.907543  0.00000000
:BAN00013:  13    0.893791    0.979053  0.00000000
        Energy to separate low and high energystates:    0.51298


:NOE  : NUMBER OF ELECTRONS          =   13.000

:FER  : F E R M I - ENERGY(TETRAH.M.)=   0.8474836702
:GMA  : POTENTIAL AND CHARGE CUT-OFF  12.00 Ry**.5

:POS001: ATOM    1 X,Y,Z = 0.00000 0.00000 0.50000  MULT= 1  ZZ= 59.000  Pr        

       LMMAX  5
       LM=   0 0  4 0  4 4  6 0  6 4

:CHA001: TOTAL VALENCE CHARGE INSIDE SPHERE   1 =   9.8551    (RMT=  2.5000 )
:PCS001: PARTIAL CHARGES SPHERE =  1 S,P,D,F,      D-EG,D-T2G 
:QTL001: 2.0514 5.3420 1.0089 1.4514 0.0000 0.0000 0.0000 0.3580 0.6509 0.0000 0.0000 0.0000
        Q-s-low E-s-low   Q-p-low E-p-low   Q-d-low E-d-low   Q-f-low E-f-low
:EPL001:  1.9228 -1.7743    5.2263 -0.4673    0.0064 -0.4959    0.0019 -0.4957
        Q-s-hi  E-s-hi    Q-p-hi  E-p-hi    Q-d-hi  E-d-hi    Q-f-hi  E-f-hi 
:EPH001:  0.1286  0.7177    0.1157  0.7632    1.0024  0.7475    1.4495  0.8118

:CHA  : TOTAL VALENCE CHARGE INSIDE UNIT CELL =      13.000000

:SUM  : SUM OF EIGENVALUES =          -2.549104396



   QTL-B VALUE .EQ.    2.42608   in Band of energy    0.85919   ATOM=    1   L=  3
    Most likely no ghostbands, but adjust Energy-parameters for this ATOM and L


:WARN : QTL-B value eq.   2.43 in Band of energy   0.85919  ATOM=    1  L=  3
:WARN : You should change the E-parameter for this atom and L-value in case.in1 (or try the -in1new switch)

        1.ATOM      Pr                   14 CORE STATES
:1S 001: 1S               -3066.703998062 Ry
:2S 001: 2S                -492.469340064 Ry
:2PP001: 2P*               -465.567005790 Ry
:2P 001: 2P                -430.170186768 Ry
:3S 001: 3S                -105.566302872 Ry
:3PP001: 3P*                -94.103772454 Ry
:3P 001: 3P                 -87.096288810 Ry
:3DD001: 3D*                -67.022802712 Ry
:3D 001: 3D                 -65.511353853 Ry
:4S 001: 4S                 -20.247418052 Ry
:4PP001: 4P*                -15.954263268 Ry
:4P 001: 4P                 -14.426979664 Ry
:4DD001: 4D*                 -7.360511101 Ry
:4D 001: 4D                  -7.091193269 Ry
:CINT001 Core Integral Atom   1   45.999503

       DENSITY AT NUCLEUS
        JATOM        VALENCE       SEMI-CORE          CORE           TOTAL
:RTO001:   1      655.566510        0.000000   656821.683216   657477.249726
     
       CHARGES OF NEW CHARGE DENSITY
:NTO   : INTERSTITIAL CHARGE =     3.144851
:NPC   : PW Pseudocharge     =     8.005200
:NTO001: CHARGE SPHERE  1    =    55.854652

:NEC01: NUCLEAR AND ELECTRONIC CHARGE     59.00000    58.99950
     
       CHARGES OF OLD CHARGE DENSITY
:OTO   : INTERSTITIAL CHARGE =     2.711370
:OPC   : PW Pseudocharge     =     7.726638
:OTO001: CHARGE SPHERE  1    =    56.288630

:NEC02: NUCLEAR AND ELECTRONIC CHARGE     59.00000    59.00000
     
       CONVERGENCE TEST
:DTO001: DIFFERENCE IN SPHERE  1 =  0.8045150

:DIS  :  CHARGE DISTANCE       ( 0.8045150 for atom    1 spin 1)      0.8045150
 PW Mixed is           41
 
******************************************************
* MULTISECANT MIXING VER9 RELEASE 10.4.0              *
* Slow Mode, cautious                                *
* Fixed density scale                                *
* Regularization       1.000E-04                     *
* Step Trust Radius    0.75000                       *
* Trust Upper Limit    2.000E+00                     *
* Max Number of Memory Steps   12                    *
******************************************************
 
:PWTMP   1.1959E+02  1.2500E+02  1.8504E+02
:PLANE:  PW TOTAL      3.3690 DISTAN   1.61E-01  4.79E+00 %
:CHARG:  CLM/ATOM    977.2555 DISTAN   8.58E-01  8.78E-02 %
 
Step History
        DMIX         DMIXT        Red     Pred      Trust     Lambda    MagRel    MagAbs     Beta
  1   3.5000E-02   3.5000E-02 -1.00E+00  1.00E+00 -1.00E+01  1.00E+00  3.50E-02  3.50E-02  1.00E+00
  2   2.5000E-02   2.5000E-02 -1.00E+00  1.00E+00 -1.00E+01  1.00E+00  2.50E-02  2.93E-02  1.00E+00
:JACOBIANS    3.481E-01   1.568E-02
  
:TRUST:  Step 3.71E-02  Charge 7.50E-02 (e) CTO  2.50E-01 (e) PW  3.50E-01 (e)
:DIRM :  MEMORY  1/12 SCALE   1.000
:MIX  :   PRATT  REGULARIZATION:  1.00E-04 GREED: 0.03713  Expand 1.49  0.0371                
     
       CHARGES OF MIXED CHARGE DENSITY
:CTO   : INTERSTITIAL CHARGE =     2.726729
:CPC   : PW Pseudocharge     =     8.377057
:CTO001: CHARGE SPHERE  1    =    56.273271

:NEC03: NUCLEAR AND ELECTRONIC CHARGE     59.00000    59.00000

PW CHANGE     H    K    L      Current       Change    Residue
:PTO001:      0    0    0  6.00082776E-02  3.598E-03  3.858E-03
:PTO002:     -1   -1   -1 -1.67887298E-01 -1.831E-02 -2.135E-03
:PTO003:      0    0   -2  9.70537010E-02  1.181E-02 -7.602E-04
:PTO004:      0   -2   -2  6.93547870E-02  1.290E-02  3.222E-03
:PTO005:     -1   -1   -3 -5.73660277E-02 -1.532E-02  1.492E-03
:PTO006:     -2   -2   -2  1.36287542E-02  4.243E-03 -6.610E-04
:PTO007:      0    0   -4  1.09089231E-03  1.330E-03 -1.178E-03
:PTO008:     -1   -3   -3  5.26559814E-03 -2.227E-03  1.407E-04
:PTO009:      0   -2   -4 -6.88593120E-03  1.434E-03 -7.517E-04
:PTO010:     -2   -2   -4 -8.89153709E-03 -6.346E-04 -1.515E-03
:PTO011:     -3   -3   -3  2.73693875E-03  4.766E-04  7.519E-04
:PTO012:     -1   -1   -5  8.19560600E-03  1.422E-03  1.942E-03

:ENE  : *WARNING** TOTAL ENERGY IN Ry =       -18472.14822591

 Flat Integration
 New Mode for Coulomb Integral
 Consistent 3/8+Simpson combinations
 Extension of core to zero
 LDM version in phi
 Fifth-order quadrature in outwin


            ---------
:ITE003:  3. ITERATION
            ---------

:NATO :    1 INDEPENDENT AND    1 TOTAL ATOMS IN UNITCELL
       SUBSTANCE: blebleble                                                   

       LATTICE                      = F   
:POT  : POTENTIAL OPTION EX_LDA EC_LDA VX_LDA VC_LDA
:LAT  : LATTICE CONSTANTS=  9.04565  9.04565  9.04565    1.571    1.571    1.571
:VOL  : UNIT CELL VOLUME =     185.03757
       MODE OF CALCULATION IS       = RELA
       NON-SPINPOLARIZED CALCULATION
:IFFT  : FFT-parameters:   72   72   72 Factor: 2.00


   CONVERGENCE PARAMETER FOR PSEUDOCHARGE: NCON=  9
   MAXIMAL VALUE OF RMT(JATOM)*ABSK(NKK) : RK  =29.87623


:VKCOUL :  VK-COUL convergence: 0.465E-07
       ATOMNUMBER=  1 Pr         VCOUL-ZERO =  0.48776E+00
:FIT001: LUSE= 13 SIGMA OF V-XC FIT FOR ATOM  1  0.3930690E-05
:FIT001: LUSE= 13 SIGMA OF V-XC FIT FOR ATOM  1  0.3930690E-05
:DEN  : DENSITY INTEGRAL  =         -7087.44770975   (Ry)
       ELS_POTENTIAL_AT Z=0 and Z=0.5:  -2.75984  -2.75984
       ELS_POTENTIAL_AT Y=0 and Y=0.5:   0.00000   0.00000
:VZERO:v0,v0c,v0x  -3.83374  -2.75984  -1.07391 v5,v5c,v5x  -3.83374  -2.75984  -1.07391
:VZERY:v0,v0c,v0x  -0.79864   0.00000  -0.79864 v5,v5c,v5x  -0.79864   0.00000  -0.79864
:VZERX:v0,v0c,v0x  -0.79864   0.00000  -0.79864 v5,v5c,v5x  -0.79864   0.00000  -0.79864
:LMAX-WF:   10   Non-Spherical LMAX:   4

          ATOMIC SPHERE DEPENDENT PARAMETERS FOR ATOM  Pr        
:e__0001: OVERALL ENERGY PARAMETER IS    0.5983
          OVERALL BASIS SET ON ATOM IS LAPW
:E0_0001: E( 0)=    0.5983
             APW+lo
:E0_0001: E( 0)=   -1.8225   E(BOTTOM)=   -2.208   E(TOP)=   -1.437  4  5   199
             LOCAL ORBITAL
:E1_0001: E( 1)=    0.9983
             APW+lo
:E1_0001: E( 1)=   -0.4380   E(BOTTOM)=   -1.091   E(TOP)=    0.215  3  4   198
             LOCAL ORBITAL
:E3_0001: E( 3)=    0.8477   E(BOTTOM)=    0.704   E(TOP)=    0.991  0  1   125
             APW+lo
:E2_0001: E( 2)=    0.5983   E(BOTTOM)=    0.477   E(TOP)= -200.000  2 -1    81
             APW+lo

       K=   0.00000   0.00000   0.00000            1
:RKM  : MATRIX SIZE   133LOs:  20  RKM= 7.77  WEIGHT= 1.00  PGR:    
       EIGENVALUES ARE:
:EIG00001:      -1.8051407   -0.3876518   -0.3876518   -0.3876518    0.5749239
:EIG00006:       0.8180529    0.8538950    0.8538950    0.8538950    0.8977146
:EIG00011:       0.8977146    0.8977146    0.9549129    0.9549129    0.9549129
:EIG00016:       1.1947073    1.1947073    1.6165140    1.8966920    1.8966920
:EIG00021:       1.8966920    1.9849146
       ********************************************************

:KPT   :      NUMBER OF K-POINTS:   165
:GAP (global)   :    0.0    Ry =     0.0   eV (metal)
         Bandranges (emin - emax) and occupancy:
:BAN00001:   1   -1.805141   -1.765852  2.00000000
:BAN00002:   2   -0.565324   -0.387652  2.00000000
:BAN00003:   3   -0.505180   -0.387652  2.00000000
:BAN00004:   4   -0.455586   -0.387652  2.00000000
:BAN00005:   5    0.574924    0.785487  2.00000000
:BAN00006:   6    0.680736    0.843848  1.99990058
:BAN00007:   7    0.810394    0.864189  0.99252916
:BAN00008:   8    0.841865    0.865246  0.00757026
:BAN00009:   9    0.853895    0.874208  0.00000000
:BAN00010:  10    0.865010    0.897715  0.00000000
:BAN00011:  11    0.868973    0.897715  0.00000000
:BAN00012:  12    0.874125    0.901507  0.00000000
:BAN00013:  13    0.884750    0.986403  0.00000000
        Energy to separate low and high energystates:    0.52492


:NOE  : NUMBER OF ELECTRONS          =   13.000

:FER  : F E R M I - ENERGY(TETRAH.M.)=   0.8430150175
:GMA  : POTENTIAL AND CHARGE CUT-OFF  12.00 Ry**.5

:POS001: ATOM    1 X,Y,Z = 0.00000 0.00000 0.50000  MULT= 1  ZZ= 59.000  Pr        

       LMMAX  5
       LM=   0 0  4 0  4 4  6 0  6 4

:CHA001: TOTAL VALENCE CHARGE INSIDE SPHERE   1 =   9.9824    (RMT=  2.5000 )
:PCS001: PARTIAL CHARGES SPHERE =  1 S,P,D,F,      D-EG,D-T2G 
:QTL001: 2.0485 5.3374 0.9451 1.6501 0.0000 0.0000 0.0000 0.3360 0.6090 0.0000 0.0000 0.0000
        Q-s-low E-s-low   Q-p-low E-p-low   Q-d-low E-d-low   Q-f-low E-f-low
:EPL001:  1.9236 -1.7729    5.2347 -0.4626    0.0063 -0.4912    0.0019 -0.4910
        Q-s-hi  E-s-hi    Q-p-hi  E-p-hi    Q-d-hi  E-d-hi    Q-f-hi  E-f-hi 
:EPH001:  0.1249  0.7249    0.1027  0.7655    0.9388  0.7517    1.6481  0.8112

:CHA  : TOTAL VALENCE CHARGE INSIDE UNIT CELL =      13.000000

:SUM  : SUM OF EIGENVALUES =          -2.490017296


        1.ATOM      Pr                   14 CORE STATES
:1S 001: 1S               -3066.732307364 Ry
:2S 001: 2S                -492.497160676 Ry
:2PP001: 2P*               -465.594892105 Ry
:2P 001: 2P                -430.198043822 Ry
:3S 001: 3S                -105.592798563 Ry
:3PP001: 3P*                -94.130375258 Ry
:3P 001: 3P                 -87.122716111 Ry
:3DD001: 3D*                -67.049553189 Ry
:3D 001: 3D                 -65.538058843 Ry
:4S 001: 4S                 -20.265611609 Ry
:4PP001: 4P*                -15.971951406 Ry
:4P 001: 4P                 -14.443880587 Ry
:4DD001: 4D*                 -7.376007625 Ry
:4D 001: 4D                  -7.106419662 Ry
:CINT001 Core Integral Atom   1   45.999511

       DENSITY AT NUCLEUS
        JATOM        VALENCE       SEMI-CORE          CORE           TOTAL
:RTO001:   1      655.888160        0.000000   656823.489863   657479.378023
     
       CHARGES OF NEW CHARGE DENSITY
:NTO   : INTERSTITIAL CHARGE =     3.017568
:NPC   : PW Pseudocharge     =     7.938236
:NTO001: CHARGE SPHERE  1    =    55.981942

:NEC01: NUCLEAR AND ELECTRONIC CHARGE     59.00000    58.99951
     
       CHARGES OF OLD CHARGE DENSITY
:OTO   : INTERSTITIAL CHARGE =     2.726729
:OPC   : PW Pseudocharge     =     8.377057
:OTO001: CHARGE SPHERE  1    =    56.273271

:NEC02: NUCLEAR AND ELECTRONIC CHARGE     59.00000    59.00000
     
       CONVERGENCE TEST
:DTO001: DIFFERENCE IN SPHERE  1 =  0.5297617

:DIS  :  CHARGE DISTANCE       ( 0.5297617 for atom    1 spin 1)      0.5297617
 PW Mixed is           41
 
******************************************************
* MULTISECANT MIXING VER9 RELEASE 10.4.0              *
* Standard Mode with controls                        *
* Fixed density scale                                *
* Regularization       1.000E-04                     *
* Trust Upper Limit    5.000E+00                     *
* Max Number of Memory Steps    8                    *
******************************************************
 
:PWTMP   1.1959E+02  1.2500E+02  1.8504E+02
:PLANE:  PW TOTAL      3.7328 DISTAN   3.55E-01  9.51E+00 %
:CHARG:  CLM/ATOM    977.2513 DISTAN   6.11E-01  6.26E-02 %
 
Step History
        DMIX         DMIXT        Red     Pred      Trust     Lambda    MagRel    MagAbs     Beta
  1   3.5000E-02   3.5000E-02 -1.00E+00  1.00E+00 -1.00E+01  1.00E+00  3.50E-02  3.50E-02  1.00E+00
  2   2.5000E-02   2.5000E-02  7.44E-01  1.00E+00 -1.00E+01  1.00E+00  2.50E-02  2.93E-02  1.00E+00
  3   3.7130E-02   3.7130E-02 -1.00E+00  1.00E+00 -1.00E+01  1.00E+00  3.71E-02  3.24E-02  1.00E+00
:JACOBIANS    5.752E-01   1.755E-02
  
:NORMS:  1/Froebius, Min, Max, Used   0.8077E+00  0.4615E+00  0.9229E+00  0.8078E+00
:INFO :  Number of Memory Steps    2 Skipping    0
:INFO :  SLambda=    0.0415832037  Max    0.0415832037
:PREDicted Charge, CTotal, PW Trust    9.338E-03   9.338E-03   2.616E-01
:PREDicted DMix, Beta, BLim   2.5105E-02  5.9664E-01  4.8264E-01

Eigenvalues, unscaled except for SY+YY
   #     SY Real        SY Imag          SS             YY         SY+YY Real      SY+YY Imag
   1   1.400583E+00   0.000000E+00   1.304836E+00   1.999787E+00   2.058026E+00   0.000000E+00
   2  -9.547918E-15   0.000000E+00   0.000000E+00   2.127163E-04   2.146293E-04   0.000000E+00
 
:INFO :  Singular value  2.058E+00 Weight  1.000E+00 Projection  1.558E-03
:INFO :  Singular value  2.146E-04 Weight  5.353E-01 Projection -2.241E+01
:RANK :  ACTIVE   1.54/2  =  76.76 % ; YY RANK   1.53/2  =  76.54 %
 
:DLIM :  Beta Active  8.000E-01
:BLIM :  VZERO Control Off
:TRUST:  Step 2.81E-01  Charge 7.50E-02 (e) CTO  2.50E-01 (e) PW  3.50E-01 (e)
:DIRM :  MEMORY  2/8  SCALE   1.000 RED  0.81 PRED  1.00 NEXT  0.71 BETA  0.80
:TRAVE:  Charge 7.80E-04 (e) CTO  7.80E-04 (e) PW  1.44E-01 (e)
:DIRP :  |MSR1|= 1.384E-01 |PRATT|= 3.549E-01 ANGLE=  16.6 DEGREES
:DIRQ :  |MSR1|= 6.566E-03 |PRATT|= 6.114E-01 ANGLE=  76.9 DEGREES
:DIRT :  |MSR1|= 1.385E-01 |PRATT|= 7.069E-01 ANGLE=  60.7 DEGREES
:MIX  :   MSD1   REGULARIZATION:  2.00E-04 GREED: 0.02934  Newton 1.00  0.1960                
     
       CHARGES OF MIXED CHARGE DENSITY
:CTO   : INTERSTITIAL CHARGE =     2.727509
:CPC   : PW Pseudocharge     =     8.153963
:CTO001: CHARGE SPHERE  1    =    56.272491

:NEC03: NUCLEAR AND ELECTRONIC CHARGE     59.00000    59.00000

PW CHANGE     H    K    L      Current       Change    Residue
:PTO001:      0    0    0  5.88068210E-02 -1.201E-03 -7.901E-04
:PTO002:     -1   -1   -1 -1.61539632E-01  6.348E-03  1.615E-02
:PTO003:      0    0   -2  9.28962116E-02 -4.157E-03 -1.240E-02
:PTO004:      0   -2   -2  6.49187368E-02 -4.436E-03 -9.782E-03
:PTO005:     -1   -1   -3 -5.19545286E-02  5.411E-03  1.662E-02
:PTO006:     -2   -2   -2  1.21296972E-02 -1.499E-03 -4.847E-03
:PTO007:      0    0   -4  5.94068422E-04 -4.968E-04 -2.435E-03
:PTO008:     -1   -3   -3  6.05326231E-03  7.877E-04  2.317E-03
:PTO009:      0   -2   -4 -7.41357987E-03 -5.276E-04 -2.099E-03
:PTO010:     -2   -2   -4 -8.71192600E-03  1.796E-04 -8.344E-04
:PTO011:     -3   -3   -3  2.59001642E-03 -1.469E-04  2.668E-04
:PTO012:     -1   -1   -5  7.75006656E-03 -4.455E-04  4.638E-04

:ENE  : ********** TOTAL ENERGY IN Ry =       -18472.13559737

 Flat Integration
 New Mode for Coulomb Integral
 Consistent 3/8+Simpson combinations
 Extension of core to zero
 LDM version in phi
 Fifth-order quadrature in outwin


            ---------
:ITE004:  4. ITERATION
            ---------

:NATO :    1 INDEPENDENT AND    1 TOTAL ATOMS IN UNITCELL
       SUBSTANCE: blebleble                                                   

       LATTICE                      = F   
:POT  : POTENTIAL OPTION EX_LDA EC_LDA VX_LDA VC_LDA
:LAT  : LATTICE CONSTANTS=  9.04565  9.04565  9.04565    1.571    1.571    1.571
:VOL  : UNIT CELL VOLUME =     185.03757
       MODE OF CALCULATION IS       = RELA
       NON-SPINPOLARIZED CALCULATION
:IFFT  : FFT-parameters:   72   72   72 Factor: 2.00


   CONVERGENCE PARAMETER FOR PSEUDOCHARGE: NCON=  9
   MAXIMAL VALUE OF RMT(JATOM)*ABSK(NKK) : RK  =29.87623


:VKCOUL :  VK-COUL convergence: 0.450E-07
       ATOMNUMBER=  1 Pr         VCOUL-ZERO =  0.48340E+00
:FIT001: LUSE= 13 SIGMA OF V-XC FIT FOR ATOM  1  0.4136210E-05
:FIT001: LUSE= 13 SIGMA OF V-XC FIT FOR ATOM  1  0.4136210E-05
:DEN  : DENSITY INTEGRAL  =         -7087.21285344   (Ry)
       ELS_POTENTIAL_AT Z=0 and Z=0.5:  -2.73477  -2.73477
       ELS_POTENTIAL_AT Y=0 and Y=0.5:   0.00000   0.00000
:VZERO:v0,v0c,v0x  -3.79952  -2.73477  -1.06474 v5,v5c,v5x  -3.79952  -2.73477  -1.06474
:VZERY:v0,v0c,v0x  -0.79639   0.00000  -0.79639 v5,v5c,v5x  -0.79639   0.00000  -0.79639
:VZERX:v0,v0c,v0x  -0.79639   0.00000  -0.79639 v5,v5c,v5x  -0.79639   0.00000  -0.79639
:LMAX-WF:   10   Non-Spherical LMAX:   4

          ATOMIC SPHERE DEPENDENT PARAMETERS FOR ATOM  Pr        
:e__0001: OVERALL ENERGY PARAMETER IS    0.6281
          OVERALL BASIS SET ON ATOM IS LAPW
:E0_0001: E( 0)=    0.6281
             APW+lo
:E0_0001: E( 0)=   -1.8271   E(BOTTOM)=   -2.212   E(TOP)=   -1.442  4  5   197
             LOCAL ORBITAL
:E1_0001: E( 1)=    1.0281
             APW+lo
:E1_0001: E( 1)=   -0.4426   E(BOTTOM)=   -1.096   E(TOP)=    0.210  3  4   198
             LOCAL ORBITAL
:E3_0001: E( 3)=    0.8432   E(BOTTOM)=    0.699   E(TOP)=    0.987  0  1   121
             APW+lo
:E2_0001: E( 2)=    0.6281   E(BOTTOM)=    0.473   E(TOP)= -200.000  2 -1   118
             APW+lo

       K=   0.00000   0.00000   0.00000            1
:RKM  : MATRIX SIZE   133LOs:  20  RKM= 7.77  WEIGHT= 1.00  PGR:    
       EIGENVALUES ARE:
:EIG00001:      -1.8097655   -0.3922572   -0.3922572   -0.3922572    0.5705473
:EIG00006:       0.8136654    0.8494543    0.8494543    0.8494543    0.8932970
:EIG00011:       0.8932970    0.8932970    0.9504782    0.9504782    0.9504782
:EIG00016:       1.1901636    1.1901636    1.6122299    1.8923376    1.8923376
:EIG00021:       1.8923376    1.9805130
       ********************************************************

:KPT   :      NUMBER OF K-POINTS:   165
:GAP (global)   :    0.0    Ry =     0.0   eV (metal)
         Bandranges (emin - emax) and occupancy:
:BAN00001:   1   -1.809765   -1.770487  2.00000000
:BAN00002:   2   -0.569880   -0.392257  2.00000000
:BAN00003:   3   -0.509751   -0.392257  2.00000000
:BAN00004:   4   -0.460171   -0.392257  2.00000000
:BAN00005:   5    0.570547    0.781047  2.00000000
:BAN00006:   6    0.676347    0.839425  1.99989962
:BAN00007:   7    0.805981    0.859768  0.99253334
:BAN00008:   8    0.837441    0.860817  0.00756704
:BAN00009:   9    0.849454    0.869815  0.00000000
:BAN00010:  10    0.860587    0.893297  0.00000000
:BAN00011:  11    0.864544    0.893297  0.00000000
:BAN00012:  12    0.869690    0.897068  0.00000000
:BAN00013:  13    0.880366    0.981951  0.00000000
        Energy to separate low and high energystates:    0.52055


:NOE  : NUMBER OF ELECTRONS          =   13.000

:FER  : F E R M I - ENERGY(TETRAH.M.)=   0.8385903290
:GMA  : POTENTIAL AND CHARGE CUT-OFF  12.00 Ry**.5

:POS001: ATOM    1 X,Y,Z = 0.00000 0.00000 0.50000  MULT= 1  ZZ= 59.000  Pr        

       LMMAX  5
       LM=   0 0  4 0  4 4  6 0  6 4

:CHA001: TOTAL VALENCE CHARGE INSIDE SPHERE   1 =   9.9827    (RMT=  2.5000 )
:PCS001: PARTIAL CHARGES SPHERE =  1 S,P,D,F,      D-EG,D-T2G 
:QTL001: 2.0485 5.3376 0.9452 1.6501 0.0000 0.0000 0.0000 0.3361 0.6091 0.0000 0.0000 0.0000
        Q-s-low E-s-low   Q-p-low E-p-low   Q-d-low E-d-low   Q-f-low E-f-low
:EPL001:  1.9236 -1.7776    5.2349 -0.4672    0.0063 -0.4958    0.0019 -0.4956
        Q-s-hi  E-s-hi    Q-p-hi  E-p-hi    Q-d-hi  E-d-hi    Q-f-hi  E-f-hi 
:EPH001:  0.1249  0.7205    0.1027  0.7611    0.9389  0.7473    1.6481  0.8068

:CHA  : TOTAL VALENCE CHARGE INSIDE UNIT CELL =      13.000000

:SUM  : SUM OF EIGENVALUES =          -2.548861292


        1.ATOM      Pr                   14 CORE STATES
:1S 001: 1S               -3066.736085901 Ry
:2S 001: 2S                -492.500687210 Ry
:2PP001: 2P*               -465.598443171 Ry
:2P 001: 2P                -430.201583182 Ry
:3S 001: 3S                -105.596369905 Ry
:3PP001: 3P*                -94.133942035 Ry
:3P 001: 3P                 -87.126293125 Ry
:3DD001: 3D*                -67.053098949 Ry
:3D 001: 3D                 -65.541607372 Ry
:4S 001: 4S                 -20.269738018 Ry
:4PP001: 4P*                -15.976105637 Ry
:4P 001: 4P                 -14.448081048 Ry
:4DD001: 4D*                 -7.380268417 Ry
:4D 001: 4D                  -7.110694080 Ry
:CINT001 Core Integral Atom   1   45.999511

       DENSITY AT NUCLEUS
        JATOM        VALENCE       SEMI-CORE          CORE           TOTAL
:RTO001:   1      655.887981        0.000000   656823.422906   657479.310887
     
       CHARGES OF NEW CHARGE DENSITY
:NTO   : INTERSTITIAL CHARGE =     3.017258
:NPC   : PW Pseudocharge     =     7.938323
:NTO001: CHARGE SPHERE  1    =    55.982252

:NEC01: NUCLEAR AND ELECTRONIC CHARGE     59.00000    58.99951
     
       CHARGES OF OLD CHARGE DENSITY
:OTO   : INTERSTITIAL CHARGE =     2.727509
:OPC   : PW Pseudocharge     =     8.153963
:OTO001: CHARGE SPHERE  1    =    56.272491

:NEC02: NUCLEAR AND ELECTRONIC CHARGE     59.00000    59.00000
     
       CONVERGENCE TEST
:DTO001: DIFFERENCE IN SPHERE  1 =  0.5308631

:DIS  :  CHARGE DISTANCE       ( 0.5308631 for atom    1 spin 1)      0.5308631
 PW Mixed is           41
 
******************************************************
* MULTISECANT MIXING VER9 RELEASE 10.4.0              *
* Slow Mode, cautious                                *
* Fixed density scale                                *
* Regularization       1.000E-04                     *
* Step Trust Radius    0.75000                       *
* Trust Upper Limit    2.000E+00                     *
* Max Number of Memory Steps   12                    *
******************************************************
 
:PWTMP   1.1959E+02  1.2500E+02  1.8504E+02
:PLANE:  PW TOTAL      3.6065 DISTAN   2.26E-01  6.26E+00 %
:CHARG:  CLM/ATOM    977.2501 DISTAN   6.10E-01  6.24E-02 %
 
Step History
        DMIX         DMIXT        Red     Pred      Trust     Lambda    MagRel    MagAbs     Beta
  1   3.5000E-02   3.5000E-02 -1.00E+00  1.00E+00 -1.00E+01  1.00E+00  3.50E-02  3.50E-02  1.00E+00
  2   2.5000E-02   2.5000E-02  7.44E-01  1.00E+00 -1.00E+01  1.00E+00  2.50E-02  2.93E-02  1.00E+00
  3   3.7130E-02   3.7130E-02  8.10E-01  1.00E+00 -1.00E+01  4.16E-02  3.71E-02  3.24E-02  1.00E+00
  4   2.9335E-02   2.9335E-02 -1.00E+00  7.06E-01  2.81E-01  1.00E+00  1.96E-01  1.39E-01  8.00E-01
:JACOBIANS    7.882E-01   6.114E-02
  
:NORMS:  1/Froebius, Min, Max, Used   0.8210E+00  0.3771E+00  0.9992E+00  0.8697E+00
:INFO :  Number of Memory Steps    3 Skipping    0
:INFO :  SLambda=    1.4332269324  Max    1.4332269324
:PREDicted Charge, CTotal, PW Trust    3.876E-02   3.876E-02   3.610E-01
:PREDicted DMix, Beta, BLim   2.8039E-01  2.6755E+00  4.3510E-01

Eigenvalues, unscaled except for SY+YY
   #     SY Real        SY Imag          SS             YY         SY+YY Real      SY+YY Imag
   1   2.101770E+00   0.000000E+00   2.014020E+00   2.662822E+00   5.629898E+00   0.000000E+00
   2  -3.215530E-15   0.000000E+00   7.877182E-03   3.371002E-01   8.155427E-05   0.000000E+00
   3   4.149330E-02   0.000000E+00   5.488103E-17   7.811418E-05   4.418031E-01   0.000000E+00
 
:INFO :  Singular value  5.630E+00 Weight  1.000E+00 Projection  4.367E-02
:INFO :  Singular value  4.418E-01 Weight  1.000E+00 Projection -1.029E+00
:INFO :  Singular value  8.155E-05 Weight  8.576E-02 Projection -5.018E-01
:RANK :  ACTIVE   2.09/3  =  69.53 % ; YY RANK   2.08/3  =  69.31 %
 
:BLIM :  VZERO Control Off
:TRUST:  Step 3.58E-01  Charge 7.50E-02 (e) CTO  2.50E-01 (e) PW  3.61E-01 (e)
:DTRUS:  Lambda    4.763E-02 Increment    3.638E-12 Iterations    98 DMIX    6.744E-02
:INFOA:  Angle SubSpace to MSR1      1.47
:DIRM :  MEMORY  3/12 SCALE   1.000 RED  0.92 PRED  0.71 NEXT  0.46 
:INFO :  Limited by Atoms F by Step T

:TRAVE:  Charge 1.86E-02 (e) CTO  1.86E-02 (e) PW  1.67E-01 (e)
:DIRP :  |MSR1|= 2.143E-01 |PRATT|= 2.257E-01 ANGLE=  22.7 DEGREES
:DIRQ :  |MSR1|= 9.135E-02 |PRATT|= 6.103E-01 ANGLE=  32.2 DEGREES
:DIRT :  |MSR1|= 2.329E-01 |PRATT|= 6.506E-01 ANGLE=  52.7 DEGREES
:MIX  :   MSE1   REGULARIZATION:  2.66E-04 GREED: 0.07334  LMStep 0.92  0.3580 Step           
     
       CHARGES OF MIXED CHARGE DENSITY
:CTO   : INTERSTITIAL CHARGE =     2.763866
:CPC   : PW Pseudocharge     =     7.823956
:CTO001: CHARGE SPHERE  1    =    56.236134

:NEC03: NUCLEAR AND ELECTRONIC CHARGE     59.00000    59.00000

PW CHANGE     H    K    L      Current       Change    Residue
:PTO001:      0    0    0  5.72198495E-02 -1.587E-03  4.101E-04
:PTO002:     -1   -1   -1 -1.51786649E-01  9.753E-03  9.799E-03
:PTO003:      0    0   -2  8.60731106E-02 -6.823E-03 -8.238E-03
:PTO004:      0   -2   -2  5.83991580E-02 -6.520E-03 -5.343E-03
:PTO005:     -1   -1   -3 -4.29396909E-02  9.015E-03  1.120E-02
:PTO006:     -2   -2   -2  9.61122606E-03 -2.518E-03 -3.348E-03
:PTO007:      0    0   -4 -4.32569507E-04 -1.027E-03 -1.936E-03
:PTO008:     -1   -3   -3  7.36107609E-03  1.308E-03  1.528E-03
:PTO009:      0   -2   -4 -8.42764134E-03 -1.014E-03 -1.569E-03
:PTO010:     -2   -2   -4 -8.73724996E-03 -2.532E-05 -1.013E-03
:PTO011:     -3   -3   -3  2.50660412E-03 -8.341E-05  4.139E-04
:PTO012:     -1   -1   -5  7.42351220E-03 -3.266E-04  9.072E-04

:ENE  : ********** TOTAL ENERGY IN Ry =       -18472.13556608

 Flat Integration
 New Mode for Coulomb Integral
 Consistent 3/8+Simpson combinations
 Extension of core to zero
 LDM version in phi
 Fifth-order quadrature in outwin


            ---------
:ITE005:  5. ITERATION
            ---------

:NATO :    1 INDEPENDENT AND    1 TOTAL ATOMS IN UNITCELL
       SUBSTANCE: blebleble                                                   

       LATTICE                      = F   
:POT  : POTENTIAL OPTION EX_LDA EC_LDA VX_LDA VC_LDA
:LAT  : LATTICE CONSTANTS=  9.04565  9.04565  9.04565    1.571    1.571    1.571
:VOL  : UNIT CELL VOLUME =     185.03757
       MODE OF CALCULATION IS       = RELA
       NON-SPINPOLARIZED CALCULATION
:IFFT  : FFT-parameters:   72   72   72 Factor: 2.00


   CONVERGENCE PARAMETER FOR PSEUDOCHARGE: NCON=  9
   MAXIMAL VALUE OF RMT(JATOM)*ABSK(NKK) : RK  =29.87623


:VKCOUL :  VK-COUL convergence: 0.501E-07
       ATOMNUMBER=  1 Pr         VCOUL-ZERO =  0.47958E+00
:FIT001: LUSE= 13 SIGMA OF V-XC FIT FOR ATOM  1  0.9163428E-05
:FIT001: LUSE= 13 SIGMA OF V-XC FIT FOR ATOM  1  0.9163428E-05
:DEN  : DENSITY INTEGRAL  =         -7083.53720982   (Ry)
       ELS_POTENTIAL_AT Z=0 and Z=0.5:  -2.72062  -2.72062
       ELS_POTENTIAL_AT Y=0 and Y=0.5:   0.00000   0.00000
:VZERO:v0,v0c,v0x  -3.76841  -2.72062  -1.04779 v5,v5c,v5x  -3.76841  -2.72062  -1.04779
:VZERY:v0,v0c,v0x  -0.79476   0.00000  -0.79476 v5,v5c,v5x  -0.79476   0.00000  -0.79476
:VZERX:v0,v0c,v0x  -0.79476   0.00000  -0.79476 v5,v5c,v5x  -0.79476   0.00000  -0.79476
:LMAX-WF:   10   Non-Spherical LMAX:   4

          ATOMIC SPHERE DEPENDENT PARAMETERS FOR ATOM  Pr        
:e__0001: OVERALL ENERGY PARAMETER IS    0.6351
          OVERALL BASIS SET ON ATOM IS LAPW
:E0_0001: E( 0)=    0.6351
             APW+lo
:E0_0001: E( 0)=   -1.8588   E(BOTTOM)=   -2.240   E(TOP)=   -1.478  4  5   191
             LOCAL ORBITAL
:E1_0001: E( 1)=    1.0351
             APW+lo
:E1_0001: E( 1)=   -0.4703   E(BOTTOM)=   -1.118   E(TOP)=    0.177  3  4   193
             LOCAL ORBITAL
:E3_0001: E( 3)=    0.7939   E(BOTTOM)=    0.655   E(TOP)=    0.933  0  1   109
             APW+lo
:E2_0001: E( 2)=    0.6351   E(BOTTOM)=    0.455   E(TOP)= -200.000  2 -1   116
             APW+lo

       K=   0.00000   0.00000   0.00000            1
:RKM  : MATRIX SIZE   133LOs:  20  RKM= 7.77  WEIGHT= 1.00  PGR:    
       EIGENVALUES ARE:
:EIG00001:      -1.8402078   -0.4187334   -0.4187334   -0.4187334    0.5624076
:EIG00006:       0.7704646    0.8019103    0.8019103    0.8019103    0.8421292
:EIG00011:       0.8421292    0.8421292    0.9385810    0.9385810    0.9385810
:EIG00016:       1.1748824    1.1748824    1.5994445    1.8827483    1.8827483
:EIG00021:       1.8827483    1.9773589
       ********************************************************

:KPT   :      NUMBER OF K-POINTS:   165
:GAP (global)   :    0.0    Ry =     0.0   eV (metal)
         Bandranges (emin - emax) and occupancy:
:BAN00001:   1   -1.840208   -1.802110  2.00000000
:BAN00002:   2   -0.591741   -0.418733  2.00000000
:BAN00003:   3   -0.533055   -0.418733  2.00000000
:BAN00004:   4   -0.484767   -0.418733  2.00000000
:BAN00005:   5    0.562408    0.760894  2.00000000
:BAN00006:   6    0.667257    0.793705  2.00000000
:BAN00007:   7    0.772550    0.811440  0.99603429
:BAN00008:   8    0.794777    0.813380  0.00396571
:BAN00009:   9    0.801910    0.821806  0.00000000
:BAN00010:  10    0.815131    0.842129  0.00000000
:BAN00011:  11    0.818009    0.842129  0.00000000
:BAN00012:  12    0.820320    0.860473  0.00000000
:BAN00013:  13    0.830344    0.966089  0.00000000
        Energy to separate low and high energystates:    0.51241


:NOE  : NUMBER OF ELECTRONS          =   13.000

:FER  : F E R M I - ENERGY(TETRAH.M.)=   0.7955081494
:GMA  : POTENTIAL AND CHARGE CUT-OFF  12.00 Ry**.5

:POS001: ATOM    1 X,Y,Z = 0.00000 0.00000 0.50000  MULT= 1  ZZ= 59.000  Pr        

       LMMAX  5
       LM=   0 0  4 0  4 4  6 0  6 4

:CHA001: TOTAL VALENCE CHARGE INSIDE SPHERE   1 =  10.2665    (RMT=  2.5000 )
:PCS001: PARTIAL CHARGES SPHERE =  1 S,P,D,F,      D-EG,D-T2G 
:QTL001: 2.0411 5.3297 0.8050 2.0896 0.0000 0.0000 0.0000 0.2894 0.5155 0.0000 0.0000 0.0000
        Q-s-low E-s-low   Q-p-low E-p-low   Q-d-low E-d-low   Q-f-low E-f-low
:EPL001:  1.9253 -1.8090    5.2529 -0.4917    0.0060 -0.5203    0.0018 -0.5202
        Q-s-hi  E-s-hi    Q-p-hi  E-p-hi    Q-d-hi  E-d-hi    Q-f-hi  E-f-hi 
:EPH001:  0.1158  0.7021    0.0768  0.7322    0.7990  0.7224    2.0878  0.7704

:CHA  : TOTAL VALENCE CHARGE INSIDE UNIT CELL =      13.000000

:SUM  : SUM OF EIGENVALUES =          -2.877339051


        1.ATOM      Pr                   14 CORE STATES
:1S 001: 1S               -3066.818690084 Ry
:2S 001: 2S                -492.580117382 Ry
:2PP001: 2P*               -465.678181965 Ry
:2P 001: 2P                -430.281171998 Ry
:3S 001: 3S                -105.674013905 Ry
:3PP001: 3P*                -94.211737099 Ry
:3P 001: 3P                 -87.203847571 Ry
:3DD001: 3D*                -67.130950958 Ry
:3D 001: 3D                 -65.619401212 Ry
:4S 001: 4S                 -20.335862825 Ry
:4PP001: 4P*                -16.041464916 Ry
:4P 001: 4P                 -14.512277845 Ry
:4DD001: 4D*                 -7.442192251 Ry
:4D 001: 4D                  -7.172199361 Ry
:CINT001 Core Integral Atom   1   45.999525

       DENSITY AT NUCLEUS
        JATOM        VALENCE       SEMI-CORE          CORE           TOTAL
:RTO001:   1      656.036535        0.000000   656826.386596   657482.423131
     
       CHARGES OF NEW CHARGE DENSITY
:NTO   : INTERSTITIAL CHARGE =     2.733486
:NPC   : PW Pseudocharge     =     7.794346
:NTO001: CHARGE SPHERE  1    =    56.266038

:NEC01: NUCLEAR AND ELECTRONIC CHARGE     59.00000    58.99952
     
       CHARGES OF OLD CHARGE DENSITY
:OTO   : INTERSTITIAL CHARGE =     2.763866
:OPC   : PW Pseudocharge     =     7.823956
:OTO001: CHARGE SPHERE  1    =    56.236134

:NEC02: NUCLEAR AND ELECTRONIC CHARGE     59.00000    59.00000
     
       CONVERGENCE TEST
:DTO001: DIFFERENCE IN SPHERE  1 =  0.1023048

:DIS  :  CHARGE DISTANCE       ( 0.1023048 for atom    1 spin 1)      0.1023048
 PW Mixed is           41
 
******************************************************
* MULTISECANT MIXING VER9 RELEASE 10.4.0              *
* Standard Mode with controls                        *
* Fixed density scale                                *
* Regularization       1.000E-04                     *
* Trust Upper Limit    5.000E+00                     *
* Max Number of Memory Steps    8                    *
******************************************************
 
:PWTMP   1.1959E+02  1.2500E+02  1.8504E+02
:PLANE:  PW TOTAL      3.4183 DISTAN   3.38E-02  9.88E-01 %
:CHARG:  CLM/ATOM    977.2310 DISTAN   2.65E-01  2.72E-02 %
 
Step History
        DMIX         DMIXT        Red     Pred      Trust     Lambda    MagRel    MagAbs     Beta
  1   3.5000E-02   3.5000E-02 -1.00E+00  1.00E+00 -1.00E+01  1.00E+00  3.50E-02  3.50E-02  1.00E+00
  2   2.5000E-02   2.5000E-02  7.44E-01  1.00E+00 -1.00E+01  1.00E+00  2.50E-02  2.93E-02  1.00E+00
  3   3.7130E-02   3.7130E-02  8.10E-01  1.00E+00 -1.00E+01  4.16E-02  3.71E-02  3.24E-02  1.00E+00
  4   2.9335E-02   2.9335E-02  9.20E-01  7.06E-01  2.81E-01  1.43E+00  1.96E-01  1.39E-01  8.00E-01
  5   7.3338E-02   6.7435E-02 -1.00E+00  4.61E-01  3.58E-01  1.00E+00  3.58E-01  2.33E-01  1.00E+00
:JACOBIANS    8.921E-01   7.938E-02
  
:NORMS:  1/Froebius, Min, Max, Used   0.3771E+00  0.3749E+00  0.9994E+00  0.3783E+00
:INFO :  Number of Memory Steps    4 Skipping    0
:INFO :  SLambda=    2.0532695127  Max    2.0532695127
:PREDicted Charge, CTotal, PW Trust    3.519E-02   3.519E-02   2.183E-01
:PREDicted DMix, Beta, BLim   2.1564E-02  1.0729E+00  4.0065E-01

Eigenvalues, unscaled except for SY+YY
   #     SY Real        SY Imag          SS             YY         SY+YY Real      SY+YY Imag
   1   5.255848E-01   0.000000E+00   5.081397E-01   3.551087E+00   4.321159E+00   0.000000E+00
   2   2.831772E-01   0.000000E+00   6.068279E-02   4.488588E-01   1.339399E+00   0.000000E+00
   3  -1.190433E-15   0.000000E+00   5.444434E-06   4.083465E-05   1.850823E-05   0.000000E+00
   4   1.761099E-05   0.000000E+00   6.076614E-18   1.294730E-05   6.636900E-05   0.000000E+00
 
:INFO :  Singular value  4.324E+00 Weight  1.000E+00 Projection -3.114E-04
:INFO :  Singular value  1.338E+00 Weight  1.000E+00 Projection -4.120E-02
:INFO :  Singular value  6.847E-05 Weight  3.584E-02 Projection -1.438E+00
:INFO :  Singular value  1.794E-05 Weight  2.546E-03 Projection  7.142E-02
:RANK :  ACTIVE   2.04/4  =  50.96 % ; YY RANK   2.01/4  =  50.36 %
 
:BLIM :  VZERO Control Off
:TRUST:  Step 4.77E-01  Charge 7.50E-02 (e) CTO  2.50E-01 (e) PW  3.61E-01 (e)
:DIRM :  MEMORY  4/8  SCALE   1.000 RED  0.41 PRED  0.46 NEXT  0.96 
:TRAVE:  Charge 1.05E-02 (e) CTO  1.05E-02 (e) PW  9.75E-02 (e)
:DIRP :  |MSR1|= 2.510E-02 |PRATT|= 3.379E-02 ANGLE=  66.4 DEGREES
:DIRQ :  |MSR1|= 1.313E-02 |PRATT|= 2.653E-01 ANGLE=   7.3 DEGREES
:DIRT :  |MSR1|= 2.832E-02 |PRATT|= 2.675E-01 ANGLE=  59.9 DEGREES
:MIX  :   MSE1   REGULARIZATION:  3.55E-04 GREED: 0.03698  Newton 1.00  0.1059                
     
       CHARGES OF MIXED CHARGE DENSITY
:CTO   : INTERSTITIAL CHARGE =     2.761483
:CPC   : PW Pseudocharge     =     7.782671
:CTO001: CHARGE SPHERE  1    =    56.238517

:NEC03: NUCLEAR AND ELECTRONIC CHARGE     59.00000    59.00000

PW CHANGE     H    K    L      Current       Change    Residue
:PTO001:      0    0    0  5.69838560E-02 -2.360E-04 -3.143E-04
:PTO002:     -1   -1   -1 -1.50667202E-01  1.119E-03 -8.270E-05
:PTO003:      0    0   -2  8.53060667E-02 -7.670E-04 -8.707E-04
:PTO004:      0   -2   -2  5.76551939E-02 -7.440E-04  9.787E-04
:PTO005:     -1   -1   -3 -4.19191432E-02  1.021E-03  1.663E-03
:PTO006:     -2   -2   -2  9.31744672E-03 -2.938E-04 -6.830E-04
:PTO007:      0    0   -4 -5.49447455E-04 -1.169E-04 -7.271E-04
:PTO008:     -1   -3   -3  7.50562900E-03  1.446E-04  1.762E-04
:PTO009:      0   -2   -4 -8.53505741E-03 -1.074E-04 -4.164E-04
:PTO010:     -2   -2   -4 -8.74188037E-03 -4.630E-06 -9.010E-04
:PTO011:     -3   -3   -3  2.50034036E-03 -6.264E-06  4.711E-04
:PTO012:     -1   -1   -5  7.39007035E-03 -3.344E-05  1.110E-03

:ENE  : ********** TOTAL ENERGY IN Ry =       -18472.12605115

 Flat Integration
 New Mode for Coulomb Integral
 Consistent 3/8+Simpson combinations
 Extension of core to zero
 LDM version in phi
 Fifth-order quadrature in outwin


            ---------
:ITE006:  6. ITERATION
            ---------

:NATO :    1 INDEPENDENT AND    1 TOTAL ATOMS IN UNITCELL
       SUBSTANCE: blebleble                                                   

       LATTICE                      = F   
:POT  : POTENTIAL OPTION EX_LDA EC_LDA VX_LDA VC_LDA
:LAT  : LATTICE CONSTANTS=  9.04565  9.04565  9.04565    1.571    1.571    1.571
:VOL  : UNIT CELL VOLUME =     185.03757
       MODE OF CALCULATION IS       = RELA
       NON-SPINPOLARIZED CALCULATION
:IFFT  : FFT-parameters:   72   72   72 Factor: 2.00


   CONVERGENCE PARAMETER FOR PSEUDOCHARGE: NCON=  9
   MAXIMAL VALUE OF RMT(JATOM)*ABSK(NKK) : RK  =29.87623


:VKCOUL :  VK-COUL convergence: 0.537E-07
       ATOMNUMBER=  1 Pr         VCOUL-ZERO =  0.47858E+00
:FIT001: LUSE= 13 SIGMA OF V-XC FIT FOR ATOM  1  0.1007454E-04
:FIT001: LUSE= 13 SIGMA OF V-XC FIT FOR ATOM  1  0.1007454E-04
:DEN  : DENSITY INTEGRAL  =         -7083.76845873   (Ry)
       ELS_POTENTIAL_AT Z=0 and Z=0.5:  -2.71518  -2.71518
       ELS_POTENTIAL_AT Y=0 and Y=0.5:   0.00000   0.00000
:VZERO:v0,v0c,v0x  -3.76080  -2.71518  -1.04563 v5,v5c,v5x  -3.76080  -2.71518  -1.04563
:VZERY:v0,v0c,v0x  -0.79418   0.00000  -0.79418 v5,v5c,v5x  -0.79418   0.00000  -0.79418
:VZERX:v0,v0c,v0x  -0.79418   0.00000  -0.79418 v5,v5c,v5x  -0.79418   0.00000  -0.79418
:LMAX-WF:   10   Non-Spherical LMAX:   4

          ATOMIC SPHERE DEPENDENT PARAMETERS FOR ATOM  Pr        
:e__0001: OVERALL ENERGY PARAMETER IS    0.6087
          OVERALL BASIS SET ON ATOM IS LAPW
:E0_0001: E( 0)=    0.6087
             APW+lo
:E0_0001: E( 0)=   -1.8581   E(BOTTOM)=   -2.240   E(TOP)=   -1.477  4  5   194
             LOCAL ORBITAL
:E1_0001: E( 1)=    1.0087
             APW+lo
:E1_0001: E( 1)=   -0.4699   E(BOTTOM)=   -1.118   E(TOP)=    0.178  3  4   195
             LOCAL ORBITAL
:E3_0001: E( 3)=    0.7961   E(BOTTOM)=    0.657   E(TOP)=    0.935  0  1   114
             APW+lo
:E2_0001: E( 2)=    0.6087   E(BOTTOM)=    0.455   E(TOP)= -200.000  2 -1   119
             APW+lo

       K=   0.00000   0.00000   0.00000            1
:RKM  : MATRIX SIZE   133LOs:  20  RKM= 7.77  WEIGHT= 1.00  PGR:    
       EIGENVALUES ARE:
:EIG00001:      -1.8396426   -0.4184294   -0.4184294   -0.4184294    0.5616426
:EIG00006:       0.7723133    0.8039794    0.8039794    0.8039794    0.8444763
:EIG00011:       0.8444763    0.8444763    0.9380834    0.9380834    0.9380834
:EIG00016:       1.1745227    1.1745227    1.5991414    1.8820782    1.8820782
:EIG00021:       1.8820782    1.9761190
       ********************************************************

:KPT   :      NUMBER OF K-POINTS:   165
:GAP (global)   :    0.0    Ry =     0.0   eV (metal)
         Bandranges (emin - emax) and occupancy:
:BAN00001:   1   -1.839643   -1.801474  2.00000000
:BAN00002:   2   -0.591707   -0.418429  2.00000000
:BAN00003:   3   -0.532935   -0.418429  2.00000000
:BAN00004:   4   -0.484573   -0.418429  2.00000000
:BAN00005:   5    0.561643    0.760940  2.00000000
:BAN00006:   6    0.666596    0.795692  2.00000000
:BAN00007:   7    0.773847    0.813242  0.99546124
:BAN00008:   8    0.796537    0.815471  0.00453876
:BAN00009:   9    0.803979    0.823937  0.00000000
:BAN00010:  10    0.817112    0.844476  0.00000000
:BAN00011:  11    0.820083    0.844476  0.00000000
:BAN00012:  12    0.822525    0.861503  0.00000000
:BAN00013:  13    0.832668    0.965865  0.00000000
        Energy to separate low and high energystates:    0.51164


:NOE  : NUMBER OF ELECTRONS          =   13.000

:FER  : F E R M I - ENERGY(TETRAH.M.)=   0.7973240085
:GMA  : POTENTIAL AND CHARGE CUT-OFF  12.00 Ry**.5

:POS001: ATOM    1 X,Y,Z = 0.00000 0.00000 0.50000  MULT= 1  ZZ= 59.000  Pr        

       LMMAX  5
       LM=   0 0  4 0  4 4  6 0  6 4

:CHA001: TOTAL VALENCE CHARGE INSIDE SPHERE   1 =  10.2450    (RMT=  2.5000 )
:PCS001: PARTIAL CHARGES SPHERE =  1 S,P,D,F,      D-EG,D-T2G 
:QTL001: 2.0417 5.3304 0.8158 2.0559 0.0000 0.0000 0.0000 0.2931 0.5227 0.0000 0.0000 0.0000
        Q-s-low E-s-low   Q-p-low E-p-low   Q-d-low E-d-low   Q-f-low E-f-low
:EPL001:  1.9252 -1.8084    5.2518 -0.4915    0.0060 -0.5201    0.0018 -0.5200
        Q-s-hi  E-s-hi    Q-p-hi  E-p-hi    Q-d-hi  E-d-hi    Q-f-hi  E-f-hi 
:EPH001:  0.1165  0.7021    0.0786  0.7330    0.8098  0.7228    2.0540  0.7718

:CHA  : TOTAL VALENCE CHARGE INSIDE UNIT CELL =      13.000000

:SUM  : SUM OF EIGENVALUES =          -2.872614968


        1.ATOM      Pr                   14 CORE STATES
:1S 001: 1S               -3066.812762905 Ry
:2S 001: 2S                -492.573989594 Ry
:2PP001: 2P*               -465.672050787 Ry
:2P 001: 2P                -430.275038251 Ry
:3S 001: 3S                -105.668362522 Ry
:3PP001: 3P*                -94.206054430 Ry
:3P 001: 3P                 -87.198209520 Ry
:3DD001: 3D*                -67.125197253 Ry
:3D 001: 3D                 -65.613660956 Ry
:4S 001: 4S                 -20.331996565 Ry
:4PP001: 4P*                -16.037695330 Ry
:4P 001: 4P                 -14.508664844 Ry
:4DD001: 4D*                 -7.438830239 Ry
:4D 001: 4D                  -7.168888664 Ry
:CINT001 Core Integral Atom   1   45.999524

       DENSITY AT NUCLEUS
        JATOM        VALENCE       SEMI-CORE          CORE           TOTAL
:RTO001:   1      656.095809        0.000000   656826.045482   657482.141291
     
       CHARGES OF NEW CHARGE DENSITY
:NTO   : INTERSTITIAL CHARGE =     2.755010
:NPC   : PW Pseudocharge     =     7.805664
:NTO001: CHARGE SPHERE  1    =    56.244513

:NEC01: NUCLEAR AND ELECTRONIC CHARGE     59.00000    58.99952
     
       CHARGES OF OLD CHARGE DENSITY
:OTO   : INTERSTITIAL CHARGE =     2.761483
:OPC   : PW Pseudocharge     =     7.782671
:OTO001: CHARGE SPHERE  1    =    56.238517

:NEC02: NUCLEAR AND ELECTRONIC CHARGE     59.00000    59.00000
     
       CONVERGENCE TEST
:DTO001: DIFFERENCE IN SPHERE  1 =  0.0729215

:DIS  :  CHARGE DISTANCE       ( 0.0729215 for atom    1 spin 1)      0.0729215
 PW Mixed is           41
 
******************************************************
* MULTISECANT MIXING VER9 RELEASE 10.4.0              *
* Standard Mode with controls                        *
* Fixed density scale                                *
* Regularization       1.000E-04                     *
* Trust Upper Limit    5.000E+00                     *
* Max Number of Memory Steps    8                    *
******************************************************
 
:PWTMP   1.1959E+02  1.2500E+02  1.8504E+02
:PLANE:  PW TOTAL      3.3956 DISTAN   3.34E-02  9.84E-01 %
:CHARG:  CLM/ATOM    977.2301 DISTAN   2.44E-01  2.50E-02 %
 
Step History
        DMIX         DMIXT        Red     Pred      Trust     Lambda    MagRel    MagAbs     Beta
  1   3.5000E-02   3.5000E-02 -1.00E+00  1.00E+00 -1.00E+01  1.00E+00  3.50E-02  3.50E-02  1.00E+00
  2   2.5000E-02   2.5000E-02  7.44E-01  1.00E+00 -1.00E+01  1.00E+00  2.50E-02  2.93E-02  1.00E+00
  3   3.7130E-02   3.7130E-02  8.10E-01  1.00E+00 -1.00E+01  4.16E-02  3.71E-02  3.24E-02  1.00E+00
  4   2.9335E-02   2.9335E-02  9.20E-01  7.06E-01  2.81E-01  1.43E+00  1.96E-01  1.39E-01  8.00E-01
  5   7.3338E-02   6.7435E-02  4.11E-01  4.61E-01  3.58E-01  2.05E+00  3.58E-01  2.33E-01  1.00E+00
  6   3.6979E-02   3.6979E-02 -1.00E+00  9.57E-01  4.77E-01  1.00E+00  1.06E-01  2.83E-02  1.00E+00
:JACOBIANS    9.566E-01   5.984E-01
  
:NORMS:  1/Froebius, Min, Max, Used   0.4324E+00  0.4243E+00  0.1000E+01  0.4518E+00
:INFO :  Number of Memory Steps    5 Skipping    0
:INFO :  SLambda=    0.9655599377  Max    0.9655599377
:PREDicted Charge, CTotal, PW Trust    4.214E-03   4.214E-03   1.553E-03
:PREDicted DMix, Beta, BLim   9.8305E-01  5.6328E+00  1.0146E+00

Eigenvalues, unscaled except for SY+YY
   #     SY Real        SY Imag          SS             YY         SY+YY Real      SY+YY Imag
   1   8.281378E-01   0.000000E+00   8.415227E-01   4.122898E+00   4.477557E+00   0.000000E+00
   2   3.748973E-01   0.000000E+00   6.914077E-02   8.393618E-01   1.646127E+00   0.000000E+00
   3   3.956182E-02   0.000000E+00   2.403494E-02   3.771190E-02   7.608712E-02   0.000000E+00
   4   1.384036E-16   0.000000E+00   3.899200E-08   2.456985E-05   2.676692E-05   0.000000E+00
   5   5.582902E-07   0.000000E+00   7.213074E-18   3.911503E-06   3.799559E-06   0.000000E+00
 
:INFO :  Singular value  4.479E+00 Weight  1.000E+00 Projection -3.035E-04
:INFO :  Singular value  1.645E+00 Weight  1.000E+00 Projection -4.930E-02
:INFO :  Singular value  7.609E-02 Weight  1.000E+00 Projection -1.237E+00
:INFO :  Singular value  2.681E-05 Weight  4.211E-03 Projection -2.774E-02
:INFO :  Singular value  3.793E-06 Weight  8.463E-05 Projection -5.897E-04
:RANK :  ACTIVE   3.00/5  =  60.09 % ; YY RANK   3.00/5  =  60.07 %
 
:BLIM :  VZERO Control Off
:TRUST:  Step 7.06E-01  Charge 6.00E-02 (e) CTO  2.00E-01 (e) PW  3.61E-01 (e)
:DTRUS:  Lambda    1.410E-01 Increment    7.276E-12 Iterations    99 DMIX    8.234E-02
:INFOA:  Angle SubSpace to MSR1      0.62
:DIRM :  MEMORY  5/8  SCALE   1.000 RED  0.92 PRED  0.96 NEXT  0.37 
:INFO :  Limited by Atoms F by Step T

:TRAVE:  Charge 6.41E-03 (e) CTO  6.41E-03 (e) PW  5.58E-02 (e)
:DIRP :  |MSR1|= 2.420E-02 |PRATT|= 3.343E-02 ANGLE=   5.3 DEGREES
:DIRQ :  |MSR1|= 1.722E-01 |PRATT|= 2.439E-01 ANGLE=   4.4 DEGREES
:DIRT :  |MSR1|= 1.739E-01 |PRATT|= 2.462E-01 ANGLE=   4.4 DEGREES
:MIX  :   MSD1   REGULARIZATION:  4.12E-04 GREED: 0.09245  LMStep 0.67  0.7065 Step           
     
       CHARGES OF MIXED CHARGE DENSITY
:CTO   : INTERSTITIAL CHARGE =     2.763824
:CPC   : PW Pseudocharge     =     7.802149
:CTO001: CHARGE SPHERE  1    =    56.236176

:NEC03: NUCLEAR AND ELECTRONIC CHARGE     59.00000    59.00000

PW CHANGE     H    K    L      Current       Change    Residue
:PTO001:      0    0    0  5.71017697E-02  1.179E-04  9.916E-05
:PTO002:     -1   -1   -1 -1.51497377E-01 -8.302E-04 -1.199E-03
:PTO003:      0    0   -2  8.51486807E-02 -1.574E-04 -1.303E-04
:PTO004:      0   -2   -2  5.88882835E-02  1.233E-03  1.745E-03
:PTO005:     -1   -1   -3 -4.13650075E-02  5.541E-04  6.705E-04
:PTO006:     -2   -2   -2  9.02350287E-03 -2.939E-04 -4.012E-04
:PTO007:      0    0   -4 -1.00526709E-03 -4.558E-04 -6.207E-04
:PTO008:     -1   -3   -3  7.53773610E-03  3.211E-05  3.273E-05
:PTO009:      0   -2   -4 -8.77427925E-03 -2.392E-04 -3.131E-04
:PTO010:     -2   -2   -4 -9.39303508E-03 -6.512E-04 -9.018E-04
:PTO011:     -3   -3   -3  2.84434927E-03  3.440E-04  4.800E-04
:PTO012:     -1   -1   -5  8.21250054E-03  8.224E-04  1.149E-03

:ENE  : ********** TOTAL ENERGY IN Ry =       -18472.12595611

 Flat Integration
 New Mode for Coulomb Integral
 Consistent 3/8+Simpson combinations
 Extension of core to zero
 LDM version in phi
 Fifth-order quadrature in outwin


            ---------
:ITE007:  7. ITERATION
            ---------

:NATO :    1 INDEPENDENT AND    1 TOTAL ATOMS IN UNITCELL
       SUBSTANCE: blebleble                                                   

       LATTICE                      = F   
:POT  : POTENTIAL OPTION EX_LDA EC_LDA VX_LDA VC_LDA
:LAT  : LATTICE CONSTANTS=  9.04565  9.04565  9.04565    1.571    1.571    1.571
:VOL  : UNIT CELL VOLUME =     185.03757
       MODE OF CALCULATION IS       = RELA
       NON-SPINPOLARIZED CALCULATION
:IFFT  : FFT-parameters:   72   72   72 Factor: 2.00


   CONVERGENCE PARAMETER FOR PSEUDOCHARGE: NCON=  9
   MAXIMAL VALUE OF RMT(JATOM)*ABSK(NKK) : RK  =29.87623


:VKCOUL :  VK-COUL convergence: 0.107E-06
       ATOMNUMBER=  1 Pr         VCOUL-ZERO =  0.47906E+00
:FIT001: LUSE= 13 SIGMA OF V-XC FIT FOR ATOM  1  0.3929481E-04
:FIT001: LUSE= 13 SIGMA OF V-XC FIT FOR ATOM  1  0.3929481E-04
:DEN  : DENSITY INTEGRAL  =         -7083.81515728   (Ry)
       ELS_POTENTIAL_AT Z=0 and Z=0.5:  -2.72763  -2.72763
       ELS_POTENTIAL_AT Y=0 and Y=0.5:   0.00000   0.00000
:VZERO:v0,v0c,v0x  -3.76798  -2.72763  -1.04035 v5,v5c,v5x  -3.76798  -2.72763  -1.04035
:VZERY:v0,v0c,v0x  -0.79436   0.00000  -0.79436 v5,v5c,v5x  -0.79436   0.00000  -0.79436
:VZERX:v0,v0c,v0x  -0.79436   0.00000  -0.79436 v5,v5c,v5x  -0.79436   0.00000  -0.79436
:LMAX-WF:   10   Non-Spherical LMAX:   4

          ATOMIC SPHERE DEPENDENT PARAMETERS FOR ATOM  Pr        
:e__0001: OVERALL ENERGY PARAMETER IS    0.6011
          OVERALL BASIS SET ON ATOM IS LAPW
:E0_0001: E( 0)=    0.6011
             APW+lo
:E0_0001: E( 0)=   -1.8629   E(BOTTOM)=   -2.244   E(TOP)=   -1.482  4  5   194
             LOCAL ORBITAL
:E1_0001: E( 1)=    1.0011
             APW+lo
:E1_0001: E( 1)=   -0.4740   E(BOTTOM)=   -1.121   E(TOP)=    0.173  3  4   193
             LOCAL ORBITAL
:E3_0001: E( 3)=    0.7919   E(BOTTOM)=    0.653   E(TOP)=    0.931  0  1   118
             APW+lo
:E2_0001: E( 2)=    0.6011   E(BOTTOM)=    0.452   E(TOP)= -200.000  2 -1   117
             APW+lo

       K=   0.00000   0.00000   0.00000            1
:RKM  : MATRIX SIZE   133LOs:  20  RKM= 7.77  WEIGHT= 1.00  PGR:    
       EIGENVALUES ARE:
:EIG00001:      -1.8441568   -0.4224052   -0.4224052   -0.4224052    0.5610876
:EIG00006:       0.7691319    0.7998281    0.7998281    0.7998281    0.8402312
:EIG00011:       0.8402312    0.8402312    0.9372737    0.9372737    0.9372737
:EIG00016:       1.1723445    1.1723445    1.5995292    1.8813489    1.8813489
:EIG00021:       1.8813489    1.9747605
       ********************************************************

:KPT   :      NUMBER OF K-POINTS:   165
:GAP (global)   :    0.0    Ry =     0.0   eV (metal)
         Bandranges (emin - emax) and occupancy:
:BAN00001:   1   -1.844157   -1.806187  2.00000000
:BAN00002:   2   -0.594849   -0.422405  2.00000000
:BAN00003:   3   -0.536321   -0.422405  2.00000000
:BAN00004:   4   -0.488210   -0.422405  2.00000000
:BAN00005:   5    0.561088    0.759436  2.00000000
:BAN00006:   6    0.666332    0.791833  2.00000000
:BAN00007:   7    0.770383    0.809456  0.99613430
:BAN00008:   8    0.792924    0.811394  0.00385503
:BAN00009:   9    0.799828    0.820344  0.00000000
:BAN00010:  10    0.813204    0.840231  0.00000000
:BAN00011:  11    0.816104    0.840231  0.00000000
:BAN00012:  12    0.818310    0.858228  0.00000000
:BAN00013:  13    0.828995    0.964414  0.00000000
        Energy to separate low and high energystates:    0.51109


:NOE  : NUMBER OF ELECTRONS          =   13.000

:FER  : F E R M I - ENERGY(TETRAH.M.)=   0.7936416366
:GMA  : POTENTIAL AND CHARGE CUT-OFF  12.00 Ry**.5

:POS001: ATOM    1 X,Y,Z = 0.00000 0.00000 0.50000  MULT= 1  ZZ= 59.000  Pr        

       LMMAX  5
       LM=   0 0  4 0  4 4  6 0  6 4

:CHA001: TOTAL VALENCE CHARGE INSIDE SPHERE   1 =  10.2710    (RMT=  2.5000 )
:PCS001: PARTIAL CHARGES SPHERE =  1 S,P,D,F,      D-EG,D-T2G 
:QTL001: 2.0410 5.3314 0.8048 2.0927 0.0000 0.0000 0.0000 0.2904 0.5145 0.0000 0.0000 0.0000
        Q-s-low E-s-low   Q-p-low E-p-low   Q-d-low E-d-low   Q-f-low E-f-low
:EPL001:  1.9254 -1.8131    5.2550 -0.4951    0.0059 -0.5237    0.0018 -0.5235
        Q-s-hi  E-s-hi    Q-p-hi  E-p-hi    Q-d-hi  E-d-hi    Q-f-hi  E-f-hi 
:EPH001:  0.1155  0.7005    0.0764  0.7304    0.7989  0.7207    2.0908  0.7686

:CHA  : TOTAL VALENCE CHARGE INSIDE UNIT CELL =      12.999989

:SUM  : SUM OF EIGENVALUES =          -2.914361664


        1.ATOM      Pr                   14 CORE STATES
:1S 001: 1S               -3066.809907036 Ry
:2S 001: 2S                -492.567039099 Ry
:2PP001: 2P*               -465.665289717 Ry
:2P 001: 2P                -430.268146173 Ry
:3S 001: 3S                -105.664198796 Ry
:3PP001: 3P*                -94.201737073 Ry
:3P 001: 3P                 -87.194086772 Ry
:3DD001: 3D*                -67.120312158 Ry
:3D 001: 3D                 -65.608846606 Ry
:4S 001: 4S                 -20.334127295 Ry
:4PP001: 4P*                -16.040076713 Ry
:4P 001: 4P                 -14.511504441 Ry
:4DD001: 4D*                 -7.442129949 Ry
:4D 001: 4D                  -7.172314020 Ry
:CINT001 Core Integral Atom   1   45.999524

       DENSITY AT NUCLEUS
        JATOM        VALENCE       SEMI-CORE          CORE           TOTAL
:RTO001:   1      656.218011        0.000000   656825.387116   657481.605127
     
       CHARGES OF NEW CHARGE DENSITY
:NTO   : INTERSTITIAL CHARGE =     2.729031
:NPC   : PW Pseudocharge     =     7.795513
:NTO001: CHARGE SPHERE  1    =    56.270481

:NEC01: NUCLEAR AND ELECTRONIC CHARGE     59.00000    58.99951
     
       CHARGES OF OLD CHARGE DENSITY
:OTO   : INTERSTITIAL CHARGE =     2.763824
:OPC   : PW Pseudocharge     =     7.802149
:OTO001: CHARGE SPHERE  1    =    56.236176

:NEC02: NUCLEAR AND ELECTRONIC CHARGE     59.00000    59.00000
     
       CONVERGENCE TEST
:DTO001: DIFFERENCE IN SPHERE  1 =  0.0548786

:DIS  :  CHARGE DISTANCE       ( 0.0548786 for atom    1 spin 1)      0.0548786
 PW Mixed is           41
 
******************************************************
* MULTISECANT MIXING VER9 RELEASE 10.4.0              *
* Standard Mode with controls                        *
* Fixed density scale                                *
* Regularization       1.000E-04                     *
* Trust Upper Limit    5.000E+00                     *
* Max Number of Memory Steps    8                    *
******************************************************
 
:PWTMP   1.1959E+02  1.2500E+02  1.8504E+02
:PLANE:  PW TOTAL      3.4070 DISTAN   1.33E-02  3.91E-01 %
:CHARG:  CLM/ATOM    977.2076 DISTAN   8.77E-02  8.98E-03 %
 
Step History
        DMIX         DMIXT        Red     Pred      Trust     Lambda    MagRel    MagAbs     Beta
  1   3.5000E-02   3.5000E-02 -1.00E+00  1.00E+00 -1.00E+01  1.00E+00  3.50E-02  3.50E-02  1.00E+00
  2   2.5000E-02   2.5000E-02  7.44E-01  1.00E+00 -1.00E+01  1.00E+00  2.50E-02  2.93E-02  1.00E+00
  3   3.7130E-02   3.7130E-02  8.10E-01  1.00E+00 -1.00E+01  4.16E-02  3.71E-02  3.24E-02  1.00E+00
  4   2.9335E-02   2.9335E-02  9.20E-01  7.06E-01  2.81E-01  1.43E+00  1.96E-01  1.39E-01  8.00E-01
  5   7.3338E-02   6.7435E-02  4.11E-01  4.61E-01  3.58E-01  2.05E+00  3.58E-01  2.33E-01  1.00E+00
  6   3.6979E-02   3.6979E-02  9.20E-01  9.57E-01  4.77E-01  9.66E-01  1.06E-01  2.83E-02  1.00E+00
  7   9.2447E-02   8.2338E-02 -1.00E+00  3.68E-01  7.06E-01  1.00E+00  7.06E-01  1.74E-01  1.00E+00
:JACOBIANS    9.870E-01   8.209E-01
  
:NORMS:  1/Froebius, Min, Max, Used   0.6825E+00  0.4079E+00  0.1000E+01  0.7585E+00
:INFO :  Number of Memory Steps    6 Skipping    0
:INFO :  SLambda=    1.0329921539  Max    1.0329921539
:PREDicted Charge, CTotal, PW Trust    5.619E-04   5.619E-04   1.952E-02
:PREDicted DMix, Beta, BLim   9.6022E-03  1.3660E+00  9.6768E-01

Eigenvalues, unscaled except for SY+YY
   #     SY Real        SY Imag          SS             YY         SY+YY Real      SY+YY Imag
   1   2.304090E+00   0.000000E+00   2.312116E+00   4.018435E+00   5.890712E+00   0.000000E+00
   2   4.557958E-01   0.000000E+00   4.578378E-01   1.542378E+00   2.311109E+00   0.000000E+00
   3   2.325584E-01   0.000000E+00   2.491587E-02   4.391213E-01   8.892811E-01   0.000000E+00
   4   7.449242E-06   0.000000E+00   1.538585E-06   5.239974E-05   6.324091E-05   0.000000E+00
   5   2.905123E-16   0.000000E+00   1.927910E-08   1.241249E-05   1.269042E-05   0.000000E+00
   6   1.335394E-07   0.000000E+00   3.160839E-17   8.055211E-07   9.316720E-07   0.000000E+00
 
:INFO :  Singular value  5.897E+00 Weight  1.000E+00 Projection  1.864E-02
:INFO :  Singular value  2.309E+00 Weight  1.000E+00 Projection -6.643E-02
:INFO :  Singular value  8.892E-01 Weight  1.000E+00 Projection -9.189E-03
:INFO :  Singular value  6.350E-05 Weight  2.436E-02 Projection  4.929E-02
:INFO :  Singular value  1.264E-05 Weight  9.892E-04 Projection  2.215E-03
:INFO :  Singular value  9.312E-07 Weight  5.370E-06 Projection -7.913E-05
:RANK :  ACTIVE   3.03/6  =  50.42 % ; YY RANK   3.02/6  =  50.29 %
 
:BLIM :  VZERO Control Off
:TRUST:  Step 9.42E-01  Charge 6.00E-02 (e) CTO  2.00E-01 (e) PW  3.61E-01 (e)
:DIRM :  MEMORY  6/8  SCALE   1.000 RED  0.36 PRED  0.37 NEXT  0.30 
:TRAVE:  Charge 4.95E-03 (e) CTO  4.95E-03 (e) PW  3.03E-02 (e)
:DIRP :  |MSR1|= 1.054E-02 |PRATT|= 1.331E-02 ANGLE=  48.7 DEGREES
:DIRQ :  |MSR1|= 6.303E-02 |PRATT|= 8.772E-02 ANGLE=  31.8 DEGREES
:DIRT :  |MSR1|= 6.391E-02 |PRATT|= 8.872E-02 ANGLE=  32.3 DEGREES
:MIX  :   MSE1   REGULARIZATION:  4.02E-04 GREED: 0.03908  Newton 1.00  0.7204                
     
       CHARGES OF MIXED CHARGE DENSITY
:CTO   : INTERSTITIAL CHARGE =     2.760336
:CPC   : PW Pseudocharge     =     7.813131
:CTO001: CHARGE SPHERE  1    =    56.239664

:NEC03: NUCLEAR AND ELECTRONIC CHARGE     59.00000    59.00000

PW CHANGE     H    K    L      Current       Change    Residue
:PTO001:      0    0    0  5.71422701E-02  4.050E-05 -2.137E-04
:PTO002:     -1   -1   -1 -1.51965881E-01 -4.685E-04 -4.056E-04
:PTO003:      0    0   -2  8.52284389E-02  7.976E-05  2.110E-04
:PTO004:      0   -2   -2  5.94491424E-02  5.609E-04  5.445E-04
:PTO005:     -1   -1   -3 -4.13353478E-02  2.966E-05  4.547E-06
:PTO006:     -2   -2   -2  8.95763463E-03 -6.587E-05 -1.187E-04
:PTO007:      0    0   -4 -1.14904392E-03 -1.438E-04 -1.272E-04
:PTO008:     -1   -3   -3  7.52454386E-03 -1.319E-05  1.635E-05
:PTO009:      0   -2   -4 -8.83613566E-03 -6.186E-05 -4.184E-05
:PTO010:     -2   -2   -4 -9.62778600E-03 -2.348E-04 -2.558E-04
:PTO011:     -3   -3   -3  2.97158371E-03  1.272E-04  1.431E-04
:PTO012:     -1   -1   -5  8.51442114E-03  3.019E-04  2.971E-04

:ENE  : ********** TOTAL ENERGY IN Ry =       -18472.12595213

 Flat Integration
 New Mode for Coulomb Integral
 Consistent 3/8+Simpson combinations
 Extension of core to zero
 LDM version in phi
 Fifth-order quadrature in outwin


            ---------
:ITE008:  8. ITERATION
            ---------

:NATO :    1 INDEPENDENT AND    1 TOTAL ATOMS IN UNITCELL
       SUBSTANCE: blebleble                                                   

       LATTICE                      = F   
:POT  : POTENTIAL OPTION EX_LDA EC_LDA VX_LDA VC_LDA
:LAT  : LATTICE CONSTANTS=  9.04565  9.04565  9.04565    1.571    1.571    1.571
:VOL  : UNIT CELL VOLUME =     185.03757
       MODE OF CALCULATION IS       = RELA
       NON-SPINPOLARIZED CALCULATION
:IFFT  : FFT-parameters:   72   72   72 Factor: 2.00


   CONVERGENCE PARAMETER FOR PSEUDOCHARGE: NCON=  9
   MAXIMAL VALUE OF RMT(JATOM)*ABSK(NKK) : RK  =29.87623


:VKCOUL :  VK-COUL convergence: 0.127E-06
       ATOMNUMBER=  1 Pr         VCOUL-ZERO =  0.47898E+00
:FIT001: LUSE= 13 SIGMA OF V-XC FIT FOR ATOM  1  0.5525758E-04
:FIT001: LUSE= 13 SIGMA OF V-XC FIT FOR ATOM  1  0.5525758E-04
:DEN  : DENSITY INTEGRAL  =         -7084.21786632   (Ry)
       ELS_POTENTIAL_AT Z=0 and Z=0.5:  -2.73014  -2.73014
       ELS_POTENTIAL_AT Y=0 and Y=0.5:   0.00000   0.00000
:VZERO:v0,v0c,v0x  -3.76885  -2.73014  -1.03871 v5,v5c,v5x  -3.76885  -2.73014  -1.03871
:VZERY:v0,v0c,v0x  -0.79424   0.00000  -0.79424 v5,v5c,v5x  -0.79424   0.00000  -0.79424
:VZERX:v0,v0c,v0x  -0.79424   0.00000  -0.79424 v5,v5c,v5x  -0.79424   0.00000  -0.79424
:LMAX-WF:   10   Non-Spherical LMAX:   4

          ATOMIC SPHERE DEPENDENT PARAMETERS FOR ATOM  Pr        
:e__0001: OVERALL ENERGY PARAMETER IS    0.5961
          OVERALL BASIS SET ON ATOM IS LAPW
:E0_0001: E( 0)=    0.5961
             APW+lo
:E0_0001: E( 0)=   -1.8617   E(BOTTOM)=   -2.243   E(TOP)=   -1.481  4  5   197
             LOCAL ORBITAL
:E1_0001: E( 1)=    0.9961
             APW+lo
:E1_0001: E( 1)=   -0.4732   E(BOTTOM)=   -1.121   E(TOP)=    0.174  3  4   198
             LOCAL ORBITAL
:E3_0001: E( 3)=    0.7954   E(BOTTOM)=    0.656   E(TOP)=    0.935  0  1   120
             APW+lo
:E2_0001: E( 2)=    0.5961   E(BOTTOM)=    0.453   E(TOP)= -200.000  2 -1    77
             APW+lo

       K=   0.00000   0.00000   0.00000            1
:RKM  : MATRIX SIZE   133LOs:  20  RKM= 7.77  WEIGHT= 1.00  PGR:    
       EIGENVALUES ARE:
:EIG00001:      -1.8430863   -0.4215898   -0.4215898   -0.4215898    0.5611038
:EIG00006:       0.7722900    0.8030785    0.8030785    0.8030785    0.8438519
:EIG00011:       0.8438519    0.8438519    0.9376486    0.9376486    0.9376486
:EIG00016:       1.1725624    1.1725624    1.6004254    1.8814398    1.8814398
:EIG00021:       1.8814398    1.9738512
       ********************************************************

:KPT   :      NUMBER OF K-POINTS:   165
:GAP (global)   :    0.0    Ry =     0.0   eV (metal)
         Bandranges (emin - emax) and occupancy:
:BAN00001:   1   -1.843086   -1.805059  2.00000000
:BAN00002:   2   -0.594235   -0.421590  2.00000000
:BAN00003:   3   -0.535636   -0.421590  2.00000000
:BAN00004:   4   -0.487476   -0.421590  2.00000000
:BAN00005:   5    0.561104    0.760407  2.00000000
:BAN00006:   6    0.666595    0.795032  2.00000000
:BAN00007:   7    0.772683    0.812599  0.99551242
:BAN00008:   8    0.795858    0.814707  0.00448758
:BAN00009:   9    0.803079    0.823808  0.00000000
:BAN00010:  10    0.816387    0.843852  0.00000000
:BAN00011:  11    0.819400    0.843852  0.00000000
:BAN00012:  12    0.821738    0.860204  0.00000000
:BAN00013:  13    0.832716    0.964883  0.00000000
        Energy to separate low and high energystates:    0.51110


:NOE  : NUMBER OF ELECTRONS          =   13.000

:FER  : F E R M I - ENERGY(TETRAH.M.)=   0.7966371559
:GMA  : POTENTIAL AND CHARGE CUT-OFF  12.00 Ry**.5

:POS001: ATOM    1 X,Y,Z = 0.00000 0.00000 0.50000  MULT= 1  ZZ= 59.000  Pr        

       LMMAX  5
       LM=   0 0  4 0  4 4  6 0  6 4

:CHA001: TOTAL VALENCE CHARGE INSIDE SPHERE   1 =  10.2462    (RMT=  2.5000 )
:PCS001: PARTIAL CHARGES SPHERE =  1 S,P,D,F,      D-EG,D-T2G 
:QTL001: 2.0417 5.3326 0.8178 2.0530 0.0000 0.0000 0.0000 0.2950 0.5228 0.0000 0.0000 0.0000
        Q-s-low E-s-low   Q-p-low E-p-low   Q-d-low E-d-low   Q-f-low E-f-low
:EPL001:  1.9253 -1.8120    5.2541 -0.4944    0.0059 -0.5230    0.0018 -0.5227
        Q-s-hi  E-s-hi    Q-p-hi  E-p-hi    Q-d-hi  E-d-hi    Q-f-hi  E-f-hi 
:EPH001:  0.1164  0.7014    0.0785  0.7321    0.8118  0.7221    2.0511  0.7711

:CHA  : TOTAL VALENCE CHARGE INSIDE UNIT CELL =      13.000000

:SUM  : SUM OF EIGENVALUES =          -2.900592890


        1.ATOM      Pr                   14 CORE STATES
:1S 001: 1S               -3066.800217653 Ry
:2S 001: 2S                -492.555936727 Ry
:2PP001: 2P*               -465.654251576 Ry
:2P 001: 2P                -430.257063243 Ry
:3S 001: 3S                -105.654245443 Ry
:3PP001: 3P*                -94.191714070 Ry
:3P 001: 3P                 -87.184160529 Ry
:3DD001: 3D*                -67.110068222 Ry
:3D 001: 3D                 -65.598634554 Ry
:4S 001: 4S                 -20.327921466 Ry
:4PP001: 4P*                -16.034061248 Ry
:4P 001: 4P                 -14.505806507 Ry
:4DD001: 4D*                 -7.436882272 Ry
:4D 001: 4D                  -7.167165148 Ry
:CINT001 Core Integral Atom   1   45.999522

       DENSITY AT NUCLEUS
        JATOM        VALENCE       SEMI-CORE          CORE           TOTAL
:RTO001:   1      656.316359        0.000000   656824.824504   657481.140863
     
       CHARGES OF NEW CHARGE DENSITY
:NTO   : INTERSTITIAL CHARGE =     2.753836
:NPC   : PW Pseudocharge     =     7.809291
:NTO001: CHARGE SPHERE  1    =    56.245685

:NEC01: NUCLEAR AND ELECTRONIC CHARGE     59.00000    58.99952
     
       CHARGES OF OLD CHARGE DENSITY
:OTO   : INTERSTITIAL CHARGE =     2.760336
:OPC   : PW Pseudocharge     =     7.813131
:OTO001: CHARGE SPHERE  1    =    56.239664

:NEC02: NUCLEAR AND ELECTRONIC CHARGE     59.00000    59.00000
     
       CONVERGENCE TEST
:DTO001: DIFFERENCE IN SPHERE  1 =  0.0220397

:DIS  :  CHARGE DISTANCE       ( 0.0220397 for atom    1 spin 1)      0.0220397
 PW Mixed is           41
 
******************************************************
* MULTISECANT MIXING VER9 RELEASE 10.4.0              *
* Standard Mode with controls                        *
* Fixed density scale                                *
* Regularization       1.000E-04                     *
* Trust Upper Limit    5.000E+00                     *
* Max Number of Memory Steps    8                    *
******************************************************
 
:PWTMP   1.1959E+02  1.2500E+02  1.8504E+02
:PLANE:  PW TOTAL      3.4138 DISTAN   3.17E-03  9.27E-02 %
:CHARG:  CLM/ATOM    977.2002 DISTAN   2.69E-02  2.75E-03 %
 
Step History
        DMIX         DMIXT        Red     Pred      Trust     Lambda    MagRel    MagAbs     Beta
  1   3.5000E-02   3.5000E-02 -1.00E+00  1.00E+00 -1.00E+01  1.00E+00  3.50E-02  3.50E-02  1.00E+00
  2   2.5000E-02   2.5000E-02  7.44E-01  1.00E+00 -1.00E+01  1.00E+00  2.50E-02  2.93E-02  1.00E+00
  3   3.7130E-02   3.7130E-02  8.10E-01  1.00E+00 -1.00E+01  4.16E-02  3.71E-02  3.24E-02  1.00E+00
  4   2.9335E-02   2.9335E-02  9.20E-01  7.06E-01  2.81E-01  1.43E+00  1.96E-01  1.39E-01  8.00E-01
  5   7.3338E-02   6.7435E-02  4.11E-01  4.61E-01  3.58E-01  2.05E+00  3.58E-01  2.33E-01  1.00E+00
  6   3.6979E-02   3.6979E-02  9.20E-01  9.57E-01  4.77E-01  9.66E-01  1.06E-01  2.83E-02  1.00E+00
  7   9.2447E-02   8.2338E-02  3.60E-01  3.68E-01  7.06E-01  1.03E+00  7.06E-01  1.74E-01  1.00E+00
  8   3.9084E-02   3.9084E-02 -1.00E+00  3.04E-01  9.42E-01  1.00E+00  7.20E-01  6.39E-02  1.00E+00
:JACOBIANS    1.003E+00   9.700E-01
  
:NORMS:  1/Froebius, Min, Max, Used   0.7104E+00  0.4146E+00  0.1001E+01  0.8965E+00
:INFO :  Number of Memory Steps    7 Skipping    0
:INFO :  SLambda=    1.5494882308  Max    1.5494882308
:PREDicted Charge, CTotal, PW Trust    3.185E-03   3.185E-03   5.100E-03
:PREDicted DMix, Beta, BLim   1.1730E-01  1.1011E+00  8.0296E-01

Eigenvalues, unscaled except for SY+YY
   #     SY Real        SY Imag          SS             YY         SY+YY Real      SY+YY Imag
   1   3.001449E+00   0.000000E+00   2.999624E+00   3.732030E+00   7.851888E+00   0.000000E+00
   2   5.106494E-01   0.000000E+00   5.020888E-01   2.803910E+00   3.857215E+00   0.000000E+00
   3   2.825436E-01   0.000000E+00   3.125788E-02   4.638336E-01   1.170425E+00   0.000000E+00
   4   6.788964E-05   0.000000E+00   4.805749E-05   1.830777E-04   2.804842E-04   0.000000E+00
   5   3.536385E-06   0.000000E+00   2.722283E-07   3.385014E-05   4.495235E-05   0.000000E+00
   6  -2.958562E-16   0.000000E+00   1.689419E-08   8.352954E-06   1.014447E-05   0.000000E+00
   7   1.386110E-07   0.000000E+00  -5.872707E-17   7.691646E-07   8.346633E-07   0.000000E+00
 
:INFO :  Singular value  7.868E+00 Weight  1.000E+00 Projection  1.365E-03
:INFO :  Singular value  3.851E+00 Weight  1.000E+00 Projection -3.651E-03
:INFO :  Singular value  1.170E+00 Weight  1.000E+00 Projection -1.664E-03
:INFO :  Singular value  2.814E-04 Weight  3.624E-01 Projection -6.188E-01
:INFO :  Singular value  4.561E-05 Weight  1.472E-02 Projection -4.441E-02
:INFO :  Singular value  9.989E-06 Weight  7.159E-04 Projection  1.437E-03
:INFO :  Singular value  8.328E-07 Weight  4.979E-06 Projection  1.927E-05
:RANK :  ACTIVE   3.38/7  =  48.25 % ; YY RANK   3.20/7  =  45.75 %
 
:BLIM :  VZERO Control Off
:TRUST:  Step 1.26E+00  Charge 4.80E-02 (e) CTO  1.60E-01 (e) PW  2.89E-01 (e)
:DIRM :  MEMORY  7/8  SCALE   1.000 RED  0.31 PRED  0.30 NEXT  0.77 
:TRAVE:  Charge 2.69E-03 (e) CTO  2.69E-03 (e) PW  1.54E-02 (e)
:DIRP :  |MSR1|= 9.616E-04 |PRATT|= 3.165E-03 ANGLE=  66.5 DEGREES
[...]


            ---------
:ITE014: 14. ITERATION
            ---------

:NATO :    1 INDEPENDENT AND    1 TOTAL ATOMS IN UNITCELL
       SUBSTANCE: blebleble                                                   

       LATTICE                      = F   
:POT  : POTENTIAL OPTION EX_LDA EC_LDA VX_LDA VC_LDA
:LAT  : LATTICE CONSTANTS=  9.04565  9.04565  9.04565    1.571    1.571    1.571
:VOL  : UNIT CELL VOLUME =     185.03757
       MODE OF CALCULATION IS       = RELA
       NON-SPINPOLARIZED CALCULATION
:IFFT  : FFT-parameters:   72   72   72 Factor: 2.00


   CONVERGENCE PARAMETER FOR PSEUDOCHARGE: NCON=  9
   MAXIMAL VALUE OF RMT(JATOM)*ABSK(NKK) : RK  =29.87623


:VKCOUL :  VK-COUL convergence: 0.129E-06
       ATOMNUMBER=  1 Pr         VCOUL-ZERO =  0.47831E+00
:FIT001: LUSE= 13 SIGMA OF V-XC FIT FOR ATOM  1  0.5511590E-04
:FIT001: LUSE= 13 SIGMA OF V-XC FIT FOR ATOM  1  0.5511590E-04
:DEN  : DENSITY INTEGRAL  =         -7083.98916424   (Ry)
       ELS_POTENTIAL_AT Z=0 and Z=0.5:  -2.72558  -2.72558
       ELS_POTENTIAL_AT Y=0 and Y=0.5:   0.00000   0.00000
:VZERO:v0,v0c,v0x  -3.76499  -2.72558  -1.03941 v5,v5c,v5x  -3.76499  -2.72558  -1.03941
:VZERY:v0,v0c,v0x  -0.79395   0.00000  -0.79395 v5,v5c,v5x  -0.79395   0.00000  -0.79395
:VZERX:v0,v0c,v0x  -0.79395   0.00000  -0.79395 v5,v5c,v5x  -0.79395   0.00000  -0.79395
:LMAX-WF:   10   Non-Spherical LMAX:   4

          ATOMIC SPHERE DEPENDENT PARAMETERS FOR ATOM  Pr        
:e__0001: OVERALL ENERGY PARAMETER IS    0.5963
          OVERALL BASIS SET ON ATOM IS LAPW
:E0_0001: E( 0)=    0.5963
             APW+lo
:E0_0001: E( 0)=   -1.8612   E(BOTTOM)=   -2.242   E(TOP)=   -1.480  4  5   195
             LOCAL ORBITAL
:E1_0001: E( 1)=    0.9963
             APW+lo
:E1_0001: E( 1)=   -0.4727   E(BOTTOM)=   -1.120   E(TOP)=    0.175  3  4   194
             LOCAL ORBITAL
:E3_0001: E( 3)=    0.7950   E(BOTTOM)=    0.656   E(TOP)=    0.935  0  1   119
             APW+lo
:E2_0001: E( 2)=    0.5963   E(BOTTOM)=    0.453   E(TOP)= -200.000  2 -1    80
             APW+lo

       K=   0.00000   0.00000   0.00000            1
:RKM  : MATRIX SIZE   133LOs:  20  RKM= 7.77  WEIGHT= 1.00  PGR:    
       EIGENVALUES ARE:
:EIG00001:      -1.8425458   -0.4211465   -0.4211465   -0.4211465    0.5606262
:EIG00006:       0.7718090    0.8028135    0.8028135    0.8028135    0.8434686
:EIG00011:       0.8434686    0.8434686    0.9374343    0.9374343    0.9374343
:EIG00016:       1.1726156    1.1726156    1.5994421    1.8808744    1.8808744
:EIG00021:       1.8808744    1.9732031
       ********************************************************

:KPT   :      NUMBER OF K-POINTS:   165
:GAP (global)   :    0.0    Ry =     0.0   eV (metal)
         Bandranges (emin - emax) and occupancy:
:BAN00001:   1   -1.842546   -1.804479  2.00000000
:BAN00002:   2   -0.593973   -0.421146  2.00000000
:BAN00003:   3   -0.535317   -0.421146  2.00000000
:BAN00004:   4   -0.487102   -0.421146  2.00000000
:BAN00005:   5    0.560626    0.760033  2.00000000
:BAN00006:   6    0.666172    0.794690  2.00000000
:BAN00007:   7    0.772428    0.812243  0.99550980
:BAN00008:   8    0.795528    0.814391  0.00449020
:BAN00009:   9    0.802814    0.823354  0.00000000
:BAN00010:  10    0.816068    0.843469  0.00000000
:BAN00011:  11    0.819062    0.843469  0.00000000
:BAN00012:  12    0.821435    0.859954  0.00000000
:BAN00013:  13    0.832229    0.964713  0.00000000
        Energy to separate low and high energystates:    0.51063


:NOE  : NUMBER OF ELECTRONS          =   13.000

:FER  : F E R M I - ENERGY(TETRAH.M.)=   0.7963062788
:GMA  : POTENTIAL AND CHARGE CUT-OFF  12.00 Ry**.5

:POS001: ATOM    1 X,Y,Z = 0.00000 0.00000 0.50000  MULT= 1  ZZ= 59.000  Pr        

       LMMAX  5
       LM=   0 0  4 0  4 4  6 0  6 4

:CHA001: TOTAL VALENCE CHARGE INSIDE SPHERE   1 =  10.2453    (RMT=  2.5000 )
:PCS001: PARTIAL CHARGES SPHERE =  1 S,P,D,F,      D-EG,D-T2G 
:QTL001: 2.0417 5.3320 0.8171 2.0534 0.0000 0.0000 0.0000 0.2946 0.5225 0.0000 0.0000 0.0000
        Q-s-low E-s-low   Q-p-low E-p-low   Q-d-low E-d-low   Q-f-low E-f-low
:EPL001:  1.9253 -1.8114    5.2534 -0.4940    0.0060 -0.5226    0.0018 -0.5223
        Q-s-hi  E-s-hi    Q-p-hi  E-p-hi    Q-d-hi  E-d-hi    Q-f-hi  E-f-hi 
:EPH001:  0.1164  0.7011    0.0786  0.7318    0.8111  0.7218    2.0515  0.7707

:CHA  : TOTAL VALENCE CHARGE INSIDE UNIT CELL =      13.000000

:SUM  : SUM OF EIGENVALUES =          -2.898969101


        1.ATOM      Pr                   14 CORE STATES
:1S 001: 1S               -3066.809816256 Ry
:2S 001: 2S                -492.564724912 Ry
:2PP001: 2P*               -465.663257923 Ry
:2P 001: 2P                -430.265989283 Ry
:3S 001: 3S                -105.660397829 Ry
:3PP001: 3P*                -94.198019501 Ry
:3P 001: 3P                 -87.190288924 Ry
:3DD001: 3D*                -67.116654035 Ry
:3D 001: 3D                 -65.605162450 Ry
:4S 001: 4S                 -20.329788880 Ry
:4PP001: 4P*                -16.035802696 Ry
:4P 001: 4P                 -14.507303282 Ry
:4DD001: 4D*                 -7.438092339 Ry
:4D 001: 4D                  -7.168304440 Ry
:CINT001 Core Integral Atom   1   45.999523

       DENSITY AT NUCLEUS
        JATOM        VALENCE       SEMI-CORE          CORE           TOTAL
:RTO001:   1      656.257615        0.000000   656825.800773   657482.058388
     
       CHARGES OF NEW CHARGE DENSITY
:NTO   : INTERSTITIAL CHARGE =     2.754719
:NPC   : PW Pseudocharge     =     7.808263
:NTO001: CHARGE SPHERE  1    =    56.244803

:NEC01: NUCLEAR AND ELECTRONIC CHARGE     59.00000    58.99952
     
       CHARGES OF OLD CHARGE DENSITY
:OTO   : INTERSTITIAL CHARGE =     2.755201
:OPC   : PW Pseudocharge     =     7.809620
:OTO001: CHARGE SPHERE  1    =    56.244799

:NEC02: NUCLEAR AND ELECTRONIC CHARGE     59.00000    59.00000
     
       CONVERGENCE TEST
:DTO001: DIFFERENCE IN SPHERE  1 =  0.0000141

:DIS  :  CHARGE DISTANCE       ( 0.0000141 for atom    1 spin 1)      0.0000141
 PW Mixed is           41
 
******************************************************
* MULTISECANT MIXING VER9 RELEASE 10.4.0              *
* Standard Mode with controls                        *
* Fixed density scale                                *
* Regularization       1.000E-04                     *
* Trust Upper Limit    5.000E+00                     *
* Max Number of Memory Steps    8                    *
******************************************************
 
:PWTMP   1.1959E+02  1.2500E+02  1.8504E+02
:PLANE:  PW TOTAL      3.4125 DISTAN   3.25E-06  9.53E-05 %
:CHARG:  CLM/ATOM    977.1967 DISTAN   1.86E-05  1.90E-06 %
 
Step History
        DMIX         DMIXT        Red     Pred      Trust     Lambda    MagRel    MagAbs     Beta
  6   3.6979E-02   3.6979E-02  9.20E-01  9.57E-01  4.77E-01  9.66E-01  1.06E-01  2.83E-02  1.00E+00
  7   9.2447E-02   8.2338E-02  3.60E-01  3.68E-01  7.06E-01  1.03E+00  7.06E-01  1.74E-01  1.00E+00
  8   3.9084E-02   3.9084E-02  3.05E-01  3.04E-01  9.42E-01  1.55E+00  7.20E-01  6.39E-02  1.00E+00
  9   8.5565E-02   8.5565E-02  8.56E-01  7.68E-01  1.26E+00  1.64E+00  3.44E-01  9.31E-03  1.00E+00
 10   2.1391E-01   2.1391E-01  2.96E-01  2.80E-01  1.47E+00  1.56E+00  5.63E-01  1.30E-02  1.00E+00
 11   2.1306E-01   2.1306E-01  1.19E+00  4.47E-01  2.01E+00  1.15E+00  6.26E-01  4.29E-03  9.82E-01
 12   3.1582E-01   3.1582E-01  1.12E-01  8.80E-02  1.69E+00  1.09E+00  3.22E-01  2.62E-03  9.41E-01
 13   2.4061E-01   2.4061E-01  2.43E-01  2.29E-01  2.45E+00  1.23E+00  2.78E-01  2.54E-04  1.00E+00
 14   3.5000E-01   3.5000E-01 -1.00E+00  1.04E-01  4.41E+00  1.00E+00  6.37E-01  1.41E-04  1.00E+00
:JACOBIANS    9.421E-01   3.235E+00
  
:NORMS:  1/Froebius, Min, Max, Used   0.6861E+00  0.6480E+00  0.1001E+01  0.6909E+00
:INFO :  Number of Memory Steps    8 Skipping    5
:INFO :  SLambda=    1.4976981468  Max    1.5397490002
:PREDicted Charge, CTotal, PW Trust    1.152E-05   1.152E-05   2.862E-05
:PREDicted DMix, Beta, BLim   7.0498E-02  1.0084E+00  1.0205E+00

Eigenvalues, unscaled except for SY+YY
   #     SY Real        SY Imag          SS             YY         SY+YY Real      SY+YY Imag
   1   1.805950E+00   0.000000E+00   1.796118E+00   3.762421E+00   4.666890E+00   0.000000E+00
   2   1.007140E+00   1.467417E-01   1.111738E+00   1.850483E+00   4.666890E+00   0.000000E+00
   3   1.007140E+00  -1.467417E-01   5.473632E-01   1.429790E+00   3.211945E+00   0.000000E+00
   4   4.444223E-01   0.000000E+00   2.936990E-01   5.836469E-01   1.285105E+00   0.000000E+00
   5   1.226959E-01   0.000000E+00   1.585272E-02   3.727504E-01   7.391881E-01   0.000000E+00
   6   8.634794E-04   0.000000E+00   8.079905E-04   8.954000E-04   2.186443E-03   0.000000E+00
   7   1.191718E-05   0.000000E+00   1.517609E-05   1.274074E-05   3.059374E-05   0.000000E+00
   8   5.263695E-08   0.000000E+00   9.347257E-09   4.971454E-07   4.674665E-07   0.000000E+00
 
:INFO :  Singular value  4.898E+00 Weight  1.000E+00 Projection  5.903E-06
:INFO :  Singular value  4.550E+00 Weight  1.000E+00 Projection  1.035E-06
:INFO :  Singular value  3.155E+00 Weight  1.000E+00 Projection -1.708E-06
:INFO :  Singular value  1.282E+00 Weight  1.000E+00 Projection  1.855E-06
:INFO :  Singular value  7.368E-01 Weight  1.000E+00 Projection  3.508E-06
:INFO :  Singular value  2.186E-03 Weight  9.712E-01 Projection -9.726E-05
:INFO :  Singular value  3.094E-05 Weight  6.717E-03 Projection  2.545E-05
:INFO :  Singular value  4.622E-07 Weight  1.509E-06 Projection  1.106E-08
:RANK :  ACTIVE   5.98/8  =  74.72 % ; YY RANK   5.85/8  =  73.14 %
 
:BLIM :  VZERO Control Off
:TRUST:  Step 2.25E+01  Charge 1.14E-02 (e) CTO  3.81E-02 (e) PW  6.88E-02 (e)
:DIRM :  MEMORY  8/8  SCALE   1.000 RED  0.08 PRED  0.10 NEXT  0.70 
:TRAVE:  Charge 1.57E-04 (e) CTO  1.57E-04 (e) PW  3.63E-04 (e)
:DIRP :  |MSR1|= 2.418E-06 |PRATT|= 3.251E-06 ANGLE=  90.9 DEGREES
:DIRQ :  |MSR1|= 3.556E-06 |PRATT|= 1.857E-05 ANGLE=  26.5 DEGREES
:DIRT :  |MSR1|= 4.300E-06 |PRATT|= 1.885E-05 ANGLE=  43.3 DEGREES
:MIX  :   MSE1   REGULARIZATION:  3.76E-04 GREED: 0.18365  Newton 1.00  0.2282                
     
       CHARGES OF MIXED CHARGE DENSITY
:CTO   : INTERSTITIAL CHARGE =     2.755201
:CPC   : PW Pseudocharge     =     7.809624
:CTO001: CHARGE SPHERE  1    =    56.244799

:NEC03: NUCLEAR AND ELECTRONIC CHARGE     59.00000    59.00000

PW CHANGE     H    K    L      Current       Change    Residue
:PTO001:      0    0    0  5.70955653E-02  2.150E-08 -3.017E-08
:PTO002:     -1   -1   -1 -1.51871601E-01 -1.313E-07 -6.735E-08
:PTO003:      0    0   -2  8.53317657E-02  3.389E-08 -1.434E-07
:PTO004:      0   -2   -2  5.94658953E-02  9.660E-08  8.679E-08
:PTO005:     -1   -1   -3 -4.13248393E-02 -6.861E-08  1.230E-07
:PTO006:     -2   -2   -2  8.88352651E-03  2.039E-08 -4.084E-08
:PTO007:      0    0   -4 -1.14339158E-03 -5.431E-10 -4.098E-08
:PTO008:     -1   -3   -3  7.54907156E-03 -8.946E-09  3.626E-08
:PTO009:      0   -2   -4 -8.81160740E-03 -2.642E-09 -5.612E-08
:PTO010:     -2   -2   -4 -9.65086190E-03 -8.313E-09 -3.967E-08
:PTO011:     -3   -3   -3  2.99026470E-03  3.969E-09  1.454E-08
:PTO012:     -1   -1   -5  8.51069368E-03  1.405E-08  3.564E-08

:ENE  : ********** TOTAL ENERGY IN Ry =       -18472.12586213


:LABEL1: Calculations in /home/ykent/GWIEN/example/Pr/V7/case
:LABEL2: on didymium-2.cmpgroup.ameslab.gov at Wed Jul  8 16:09:07 CDT 2020
:LABEL3: using WIEN2k_19.1 (Release 25/6/2019) in /home/ykent/opt/src/WIEN2k_19.1
:LABEL4: using the command: run_lapw -cc 0.0001
 Flat Integration
 New Mode for Coulomb Integral
 Consistent 3/8+Simpson combinations
 Extension of core to zero
 LDM version in phi
 Fifth-order quadrature in outwin


            ---------
:ITE015: 15. ITERATION
            ---------

:NATO :    1 INDEPENDENT AND    1 TOTAL ATOMS IN UNITCELL
       SUBSTANCE: blebleble                                                   

       LATTICE                      = F   
:POT  : POTENTIAL OPTION EX_LDA EC_LDA VX_LDA VC_LDA
:LAT  : LATTICE CONSTANTS=  9.04565  9.04565  9.04565    1.571    1.571    1.571
:VOL  : UNIT CELL VOLUME =     185.03757
       MODE OF CALCULATION IS       = RELA
       NON-SPINPOLARIZED CALCULATION
:IFFT  : FFT-parameters:   72   72   72 Factor: 2.00


   CONVERGENCE PARAMETER FOR PSEUDOCHARGE: NCON=  9
   MAXIMAL VALUE OF RMT(JATOM)*ABSK(NKK) : RK  =29.87623


:VKCOUL :  VK-COUL convergence: 0.129E-06
       ATOMNUMBER=  1 Pr         VCOUL-ZERO =  0.47831E+00
:FIT001: LUSE= 13 SIGMA OF V-XC FIT FOR ATOM  1  0.5511700E-04
:FIT001: LUSE= 13 SIGMA OF V-XC FIT FOR ATOM  1  0.5511700E-04
:DEN  : DENSITY INTEGRAL  =         -7083.98921802   (Ry)
       ELS_POTENTIAL_AT Z=0 and Z=0.5:  -2.72558  -2.72558
       ELS_POTENTIAL_AT Y=0 and Y=0.5:   0.00000   0.00000
:VZERO:v0,v0c,v0x  -3.76499  -2.72558  -1.03941 v5,v5c,v5x  -3.76499  -2.72558  -1.03941
:VZERY:v0,v0c,v0x  -0.79395   0.00000  -0.79395 v5,v5c,v5x  -0.79395   0.00000  -0.79395
:VZERX:v0,v0c,v0x  -0.79395   0.00000  -0.79395 v5,v5c,v5x  -0.79395   0.00000  -0.79395
:LMAX-WF:   10   Non-Spherical LMAX:   4

          ATOMIC SPHERE DEPENDENT PARAMETERS FOR ATOM  Pr        
:e__0001: OVERALL ENERGY PARAMETER IS    0.5963
          OVERALL BASIS SET ON ATOM IS LAPW
:E0_0001: E( 0)=    0.5963
             APW+lo
:E0_0001: E( 0)=   -1.8612   E(BOTTOM)=   -2.242   E(TOP)=   -1.480  4  5   198
             LOCAL ORBITAL
:E1_0001: E( 1)=    0.9963
             APW+lo
:E1_0001: E( 1)=   -0.4727   E(BOTTOM)=   -1.120   E(TOP)=    0.175  3  4   194
             LOCAL ORBITAL
:E3_0001: E( 3)=    0.7950   E(BOTTOM)=    0.656   E(TOP)=    0.935  0  1   121
             APW+lo
:E2_0001: E( 2)=    0.5963   E(BOTTOM)=    0.453   E(TOP)= -200.000  2 -1    79
             APW+lo

       K=   0.00000   0.00000   0.00000            1
:RKM  : MATRIX SIZE   133LOs:  20  RKM= 7.77  WEIGHT= 1.00  PGR:    
       EIGENVALUES ARE:
:EIG00001:      -1.8425455   -0.4211462   -0.4211462   -0.4211462    0.5606263
:EIG00006:       0.7718096    0.8028142    0.8028142    0.8028142    0.8434693
:EIG00011:       0.8434693    0.8434693    0.9374345    0.9374345    0.9374345
:EIG00016:       1.1726157    1.1726157    1.5994423    1.8808746    1.8808746
:EIG00021:       1.8808746    1.9732032
       ********************************************************

:KPT   :      NUMBER OF K-POINTS:   165
:GAP (global)   :    0.0    Ry =     0.0   eV (metal)
         Bandranges (emin - emax) and occupancy:
:BAN00001:   1   -1.842545   -1.804478  2.00000000
:BAN00002:   2   -0.593973   -0.421146  2.00000000
:BAN00003:   3   -0.535317   -0.421146  2.00000000
:BAN00004:   4   -0.487102   -0.421146  2.00000000
:BAN00005:   5    0.560626    0.760033  2.00000000
:BAN00006:   6    0.666173    0.794690  2.00000000
:BAN00007:   7    0.772429    0.812244  0.99550970
:BAN00008:   8    0.795528    0.814392  0.00449030
:BAN00009:   9    0.802814    0.823355  0.00000000
:BAN00010:  10    0.816069    0.843469  0.00000000
:BAN00011:  11    0.819062    0.843469  0.00000000
:BAN00012:  12    0.821436    0.859954  0.00000000
:BAN00013:  13    0.832230    0.964713  0.00000000
        Energy to separate low and high energystates:    0.51063


:NOE  : NUMBER OF ELECTRONS          =   13.000

:FER  : F E R M I - ENERGY(TETRAH.M.)=   0.7963068942
:GMA  : POTENTIAL AND CHARGE CUT-OFF  12.00 Ry**.5

:POS001: ATOM    1 X,Y,Z = 0.00000 0.00000 0.50000  MULT= 1  ZZ= 59.000  Pr        

       LMMAX  5
       LM=   0 0  4 0  4 4  6 0  6 4

:CHA001: TOTAL VALENCE CHARGE INSIDE SPHERE   1 =  10.2453    (RMT=  2.5000 )
:PCS001: PARTIAL CHARGES SPHERE =  1 S,P,D,F,      D-EG,D-T2G 
:QTL001: 2.0417 5.3320 0.8171 2.0534 0.0000 0.0000 0.0000 0.2946 0.5225 0.0000 0.0000 0.0000
        Q-s-low E-s-low   Q-p-low E-p-low   Q-d-low E-d-low   Q-f-low E-f-low
:EPL001:  1.9253 -1.8114    5.2534 -0.4940    0.0060 -0.5226    0.0018 -0.5223
        Q-s-hi  E-s-hi    Q-p-hi  E-p-hi    Q-d-hi  E-d-hi    Q-f-hi  E-f-hi 
:EPH001:  0.1164  0.7011    0.0786  0.7318    0.8111  0.7218    2.0515  0.7707

:CHA  : TOTAL VALENCE CHARGE INSIDE UNIT CELL =      13.000000

:SUM  : SUM OF EIGENVALUES =          -2.898965133


        1.ATOM      Pr                   14 CORE STATES
:1S 001: 1S               -3066.809815466 Ry
:2S 001: 2S                -492.564723899 Ry
:2PP001: 2P*               -465.663256954 Ry
:2P 001: 2P                -430.265988298 Ry
:3S 001: 3S                -105.660396537 Ry
:3PP001: 3P*                -94.198018222 Ry
:3P 001: 3P                 -87.190287637 Ry
:3DD001: 3D*                -67.116652777 Ry
:3D 001: 3D                 -65.605161187 Ry
:4S 001: 4S                 -20.329787823 Ry
:4PP001: 4P*                -16.035801664 Ry
:4P 001: 4P                 -14.507302287 Ry
:4DD001: 4D*                 -7.438091405 Ry
:4D 001: 4D                  -7.168303519 Ry
:CINT001 Core Integral Atom   1   45.999523

       DENSITY AT NUCLEUS
        JATOM        VALENCE       SEMI-CORE          CORE           TOTAL
:RTO001:   1      656.257614        0.000000   656825.800765   657482.058379
     
       CHARGES OF NEW CHARGE DENSITY
:NTO   : INTERSTITIAL CHARGE =     2.754723
:NPC   : PW Pseudocharge     =     7.808265
:NTO001: CHARGE SPHERE  1    =    56.244799

:NEC01: NUCLEAR AND ELECTRONIC CHARGE     59.00000    58.99952
     
       CHARGES OF OLD CHARGE DENSITY
:OTO   : INTERSTITIAL CHARGE =     2.755201
:OPC   : PW Pseudocharge     =     7.809624
:OTO001: CHARGE SPHERE  1    =    56.244799

:NEC02: NUCLEAR AND ELECTRONIC CHARGE     59.00000    59.00000
     
       CONVERGENCE TEST
:DTO001: DIFFERENCE IN SPHERE  1 =  0.0000051

:DIS  :  CHARGE DISTANCE       ( 0.0000051 for atom    1 spin 1)      0.0000051
 PW Mixed is           41
 
******************************************************
* MULTISECANT MIXING VER9 RELEASE 10.4.0              *
* Standard Mode with controls                        *
* Fixed density scale                                *
* Regularization       1.000E-04                     *
* Trust Upper Limit    5.000E+00                     *
* Max Number of Memory Steps    8                    *
******************************************************
 
:INFO : Forcing a restart
:PWTMP   1.1959E+02  1.2500E+02  1.8504E+02
:PLANE:  PW TOTAL      3.4125 DISTAN   3.63E-06  1.06E-04 %
:CHARG:  CLM/ATOM    977.1967 DISTAN   1.05E-05  1.07E-06 %
 
Step History
        DMIX         DMIXT        Red     Pred      Trust     Lambda    MagRel    MagAbs     Beta
  1   3.5000E-02   3.5000E-02 -1.00E+00  1.00E+00 -1.00E+01  1.00E+00  3.50E-02  3.50E-02  1.00E+00
:INFO :  Note, Pratt in use
:TRUST:  Step 2.25E-01  Charge 7.50E-02 (e) CTO  2.50E-01 (e) PW  3.50E-01 (e)
:DIRM :  MEMORY  0/ 8 SCALE   1.000
Performing Pseudo Compensation
Final Pseudo Compensation Rescaling     1.00000E+00
:MIX  :   PRATT  REGULARIZATION:  1.00E-04 GREED: 0.15000                  
     
       CHARGES OF MIXED CHARGE DENSITY
:CTO   : INTERSTITIAL CHARGE =     2.755201
:CPC   : PW Pseudocharge     =     7.809621
:CTO001: CHARGE SPHERE  1    =    56.244799

:NEC03: NUCLEAR AND ELECTRONIC CHARGE     59.00000    59.00000

PW CHANGE     H    K    L      Current       Change    Residue
:PTO001:      0    0    0  5.70955493E-02 -1.602E-08 -1.818E-08
:PTO002:     -1   -1   -1 -1.51871509E-01  9.172E-08  6.342E-08
:PTO003:      0    0   -2  8.53316827E-02 -8.302E-08 -1.762E-07
:PTO004:      0   -2   -2  5.94658148E-02 -8.048E-08 -3.829E-09
:PTO005:     -1   -1   -3 -4.13246883E-02  1.511E-07  1.932E-07
:PTO006:     -2   -2   -2  8.88347994E-03 -4.658E-08 -6.309E-08
:PTO007:      0    0   -4 -1.14341682E-03 -2.524E-08 -4.185E-08
:PTO008:     -1   -3   -3  7.54913388E-03  6.232E-08  4.515E-08
:PTO009:      0   -2   -4 -8.81166523E-03 -5.784E-08 -5.378E-08
:PTO010:     -2   -2   -4 -9.65089741E-03 -3.552E-08 -3.222E-08
:PTO011:     -3   -3   -3  2.99027298E-03  8.279E-09  1.102E-08
:PTO012:     -1   -1   -5  8.51071693E-03  2.325E-08  2.245E-08

:ENE  : ********** TOTAL ENERGY IN Ry =       -18472.12586214

