
------- UO2_8.scf0 --------


            ---------
:ITE073: 73. ITERATION
            ---------

:NATO :    2 INDEPENDENT AND    3 TOTAL ATOMS IN UNITCELL
       SUBSTANCE: blebleble                                                   

       LATTICE                      = F   
:POT  : POTENTIAL OPTION    5
:LAT  : LATTICE CONSTANTS= 10.67636 10.67636 10.67636    1.571    1.571    1.571
:VOL  : UNIT CELL VOLUME =     304.23507
       MODE OF CALCULATION IS       = RELA
       NON-SPINPOLARIZED CALCULATION
:IFFT  : FFT-parameters:   90   90   90 Factor: 2.00
       ATOMNUMBER=  1 U  4+      VCOUL-ZERO = -0.57700E+00
       ATOMNUMBER=  2 O  2-      VCOUL-ZERO =  0.78137E+00
:FIT001: LUSE= 13 SIGMA OF V-XC FIT FOR ATOM  1  0.4544084E-04
:FIT001: LUSE= 13 SIGMA OF V-XC FIT FOR ATOM  1  0.4544084E-04
:FIT002: LUSE= 13 SIGMA OF V-XC FIT FOR ATOM  2  0.9548811E-04
:FIT002: LUSE= 13 SIGMA OF V-XC FIT FOR ATOM  2  0.9548811E-04
:DEN  : DENSITY INTEGRAL  =        -20891.39722540   (Ry)
       ELS_POTENTIAL_AT Z=0 and Z=0.5:  -3.30483  -3.30483
       ELS_POTENTIAL_AT Y=0 and Y=0.5:   0.00000   0.00000
:VZERO:v0,v0c,v0x  -4.00040  -3.30483  -0.69557 v5,v5c,v5x  -4.00040  -3.30483  -0.69557
:VZERY:v0,v0c,v0x  -0.83318   0.00000  -0.83318 v5,v5c,v5x  -0.83318   0.00000  -0.83318
:VZERX:v0,v0c,v0x  -0.83318   0.00000  -0.83318 v5,v5c,v5x  -0.83318   0.00000  -0.83318

------- UO2_8.scf1 --------

          ATOMIC SPHERE DEPENDENT PARAMETERS FOR ATOM  U  4+     
:e__0001: OVERALL ENERGY PARAMETER IS    0.6419
          OVERALL BASIS SET ON ATOM IS LAPW
:E0_0001: E( 0)=    0.6419
             APW+lo
:E0_0001: E( 0)=   -2.3296   E(BOTTOM)=   -3.676   E(TOP)=   -0.983  5  6   239
             LOCAL ORBITAL
:E1_0001: E( 1)=   -1.2800   E(BOTTOM)=   -1.943   E(TOP)= -200.000  4 -1   216
             APW+lo
:E1_0001: E( 1)=    1.0419
             LOCAL ORBITAL
:E3_0001: E( 3)=    0.8972   E(BOTTOM)=    0.109   E(TOP)=    1.686  1  2   182
             APW+lo
:E2_0001: E( 2)=    0.6691   E(BOTTOM)=    0.669   E(TOP)= -200.000  3 -1   110
             APW+lo

          ATOMIC SPHERE DEPENDENT PARAMETERS FOR ATOM  O  2-     
:e__0002: OVERALL ENERGY PARAMETER IS    0.6419
          OVERALL BASIS SET ON ATOM IS LAPW
:E0_0002: E( 0)=   -0.3586   E(BOTTOM)=   -1.722   E(TOP)=    1.005  1  2   237
             APW+lo
:E0_0002: E( 0)=    1.0419
             LOCAL ORBITAL
:E1_0002: E( 1)=    0.6419
             APW+lo

       K=   0.00000   0.00000   0.00000            1
:RKM  : MATRIX SIZE  779LOs:  30  RKM= 8.42  WEIGHT= 1.00  PGR:    
       EIGENVALUES ARE:
:EIG00001:      -2.4090383   -0.5604938   -0.5604938   -0.5604938   -0.5584501
:EIG00006:      -0.4669953    0.3701920    0.3701920    0.3701920    0.5774435
:EIG00011:       0.5774435    0.5774435    0.8694018    0.8694018    0.8694018
:EIG00016:       0.8986812    0.9254727    0.9254727    0.9254727    0.9978745
:EIG00021:       1.0478213    1.0478213    1.4848532    1.4848532    1.4848532
:EIG00026:       1.7223434    1.7223434    1.7223434    2.0637760    2.4172255
:EIG00031:       2.4172255    2.4413609    2.4413609    2.4413609    2.7559026
:EIG00036:       2.7559026    2.7559026    2.9437925    2.9437925    2.9437925
:EIG00041:       2.9952205    3.3655365    3.3655365    3.4566728    3.4566728
:EIG00046:       3.4566728    3.5392693    3.5392693    3.5469849    3.5469849
 
:EIG00051:       3.5469849    3.5844437    3.7718205    3.7718205    3.7718205
:EIG00056:       3.8332582    3.8965282    3.8965282    3.8965282    3.9135406
:EIG00061:       3.9135406    3.9135406    3.9739400    3.9739400    3.9739400
:EIG00066:       4.2738085    4.7813280    4.7813280    4.7813280    5.0278812
:EIG00071:       5.0278812    5.0378896    5.0378896    5.0378896    5.2303964
:EIG00076:       5.6135100    5.6135100    5.6302494    5.6302494    5.6302494
:EIG00081:       5.7755438    5.7755438    5.7755438    5.9278660    5.9278660
:EIG00086:       5.9278660    6.1496194    6.1496194    6.1496194    6.2194482
:EIG00091:       6.2748228    6.2748228    6.2933460    6.2933460    6.3410258
:EIG00096:       6.3410258    6.3410258    6.4797408    6.5528747    6.5528747
 
:EIG00101:       6.5528747    6.5913152    6.5913152    6.5913152    6.6900180
:EIG00106:       6.7262356    6.7262356    6.7262356    6.9285497    6.9582106
:EIG00111:       6.9582106    6.9582106    7.0061096    7.0061096    7.0174347
:EIG00116:       7.0174347    7.0174347    7.0585011    7.0585011    7.0585011
:EIG00121:       7.2833300    7.2833300    7.2833300    7.7451108    7.7451108
:EIG00126:       7.7451108    7.7642399    7.7642399    7.7642399    7.8948436
:EIG00131:       7.8948436    7.8948436    7.9035688    7.9711590    7.9711590
:EIG00136:       8.0925308    8.0925308    8.1827541    8.1827541    8.1827541
:EIG00141:       8.2686258    8.2686258    8.2686258
       ********************************************************

:KPT   :      NUMBER OF K-POINTS:   145

------- UO2_8.scfso --------
   0.0   0.0 angle (M,z), angle (M,x) deg
 
        SPIN-ORBIT EIGENVALUES:
     K=   0.00000   0.00000   0.00000            1
      MATRIX SIZE=  286   WEIGHT= 1.00
     EIGENVALUES ARE:
          -2.4090383   -2.4090383   -0.9678989   -0.9678989   -0.5584501
          -0.5584501   -0.4669984   -0.4669984   -0.3945675   -0.3945675
          -0.3945675   -0.3945675    0.3684219    0.3684219    0.3684219
           0.3684219    0.3729118    0.3729118    0.5728672    0.5728672
           0.5793094    0.5793094    0.5793094    0.5793094    0.8396944
           0.8396944    0.8587663    0.8587663    0.8587663    0.8587663
           0.9182551    0.9182551    0.9312307    0.9312307    0.9312307
           0.9312307    0.9454444    0.9454444    0.9978745    0.9978745

           1.0456427    1.0456427    1.0456427    1.0456427    1.4740560
           1.4740560    1.4740560    1.4740560    1.5069178    1.5069178
           1.6616748    1.6616748    1.7496083    1.7496083    1.7496083
           1.7496083    2.0637760    2.0637760    2.4089388    2.4089388
           2.4089388    2.4089388    2.4450324    2.4450324    2.4450324
           2.4450324    2.4505678    2.4505678    2.5989116    2.5989116
           2.8431368    2.8431368    2.8431368    2.8431368    2.9401209
           2.9401209    2.9453178    2.9453178    2.9453178    2.9453178

           2.9964346    2.9964346    3.3610602    3.3610602    3.3610602
           3.3610602    3.4535682    3.4535682    3.4535682    3.4535682
           3.4736027    3.4736027    3.5392693    3.5392693    3.5392693
           3.5392693    3.5469705    3.5469705    3.5469921    3.5469921
           3.5469921    3.5469921    3.5844437    3.5844437    3.7718254
           3.7718254    3.7718254    3.7718254    3.7723592    3.7723592
           3.8332582    3.8332582    3.8965330    3.8965330    3.8965330
           3.8965330    3.8965340    3.8965340    3.9067516    3.9067516

           3.9178610    3.9178610    3.9178610    3.9178610    3.9728090
           3.9728090    3.9749892    3.9749892    3.9749892    3.9749892
           4.2739756    4.2739756
       ********************************************************

------- UO2_8.scf2 --------
:GMA  : POTENTIAL AND CHARGE CUT-OFF  12.00 Ry**.5
         Bandranges (emin - emax) and occupancy:
:BAN00018:  18    0.372912    0.553940  1.00000000
:BAN00019:  19    0.465389    0.573319  1.00000000
:BAN00020:  20    0.465389    0.573319  1.00000000
:BAN00021:  21    0.534357    0.596271  1.00000000
:BAN00022:  22    0.534357    0.596271  1.00000000
:BAN00023:  23    0.570368    0.622088  1.00000000
:BAN00024:  24    0.570368    0.622088  1.00000000
:BAN00025:  25    0.801261    0.839694  0.94575328
:BAN00026:  26    0.801261    0.839694  0.94575328
:BAN00027:  27    0.833189    0.858766  0.05424672
:BAN00028:  28    0.833189    0.858766  0.05424672
:BAN00029:  29    0.840848    0.858766  0.00000000
:BAN00030:  30    0.840848    0.858766  0.00000000
:BAN00031:  31    0.866254    0.918290  0.00000000
:BAN00032:  32    0.866254    0.918290  0.00000000
:BAN00033:  33    0.891851    0.931231  0.00000000
        Energy to separate low and high energystates:    0.75126


:NLDA  : NUMBER OF ELECTRONS          =  26.000

:FLDA  : F E R M I - ENERGY           =   1.33493




:POS001: AT.NR.   1 POSITION = 0.00000 0.00000 0.00000  MULTIPLICITY =  1

       LMMAX  5
       LM=   0 0  4 0  4 4  6 0  6 4




:POS002: AT.NR.   2 POSITION = 0.00000 0.00000 0.00000  MULTIPLICITY =  2

       LMMAX  6
       LM=   0 0  4 0  4 4  6 0  6 4 -3 2
:FER DMFT Fermi Energy   0.79396
:EORB          0.100477917
:SUM SUM OF DMFT BAND ENERGIES         -2.703502037

:CHA001: TOTAL CHARGE INSIDE SPHERE   1 =     8.172648
:PCS001: PARTIAL CHARGES SPHERE =  1 S,P,D,F,      D-EG,D-T2G 
:QTL001: 1.7952 4.1643 0.2183 1.9923 0.0000 0.0000 0.0000 0.0482 0.1816 0.0000 0.0000 0.0000
        Q-s-low E-s-low   Q-p-low E-p-low   Q-d-low E-d-low   Q-f-low E-f-low
:EPL001:  1.7950 -2.3318    4.1628 -0.5465    0.2167  0.4161    0.2269  0.5347
        Q-s-hi  E-s-hi    Q-p-hi  E-p-hi    Q-d-hi  E-d-hi    Q-f-hi  E-f-hi 
:EPH001:  0.0002  0.8951    0.0015  0.8609    0.0016  0.8645    1.7654  0.8299

:CHA002: TOTAL CHARGE INSIDE SPHERE   2 =     5.144384
:PCS002: PARTIAL CHARGES SPHERE =  2 S,P,D,F,      D-EG,D-T2G 
:QTL002: 1.5771 3.5579 0.0080 0.0012 0.0000 0.0000 0.0000 0.0029 0.0087 0.0000 0.0000 0.0000
        Q-s-low E-s-low   Q-p-low E-p-low   Q-d-low E-d-low   Q-f-low E-f-low
:EPL002:  1.5756 -0.4888    3.5401  0.4961    0.0065 -0.0285    0.0010 -0.1731
        Q-s-hi  E-s-hi    Q-p-hi  E-p-hi    Q-d-hi  E-d-hi    Q-f-hi  E-f-hi 
:EPH002:  0.0015  0.8460    0.0178  0.8510    0.0015  0.8281    0.0002  0.8348

:CHA  : TOTAL CHARGE INSIDE UNIT CELL =      26.000000

:ESUM  : SUM OF EIGENVALUES =          -2.629355256


------- UO2_8.scfc --------

        1.ATOM      U  4+                21 CORE STATES
:1S 001: 1S               -8506.440218668 Ry
:2S 001: 2S               -1587.887265311 Ry
:2PP001: 2P*              -1531.133304693 Ry
:2P 001: 2P               -1249.937295491 Ry
:3S 001: 3S                -400.026821988 Ry
:3PP001: 3P*               -374.253622853 Ry
:3P 001: 3P                -309.470260672 Ry
:3DD001: 3D*               -268.657942150 Ry
:3D 001: 3D                -255.512665587 Ry
:4S 001: 4S                -101.095715467 Ry
:4PP001: 4P*                -89.502168756 Ry
:4P 001: 4P                 -72.592380959 Ry
:4DD001: 4D*                -54.127574124 Ry
:4D 001: 4D                 -51.018971840 Ry
:5S 001: 5S                 -21.687803667 Ry
:5PP001: 5P*                -17.181100576 Ry
:5P 001: 5P                 -13.151009710 Ry
:4FF001: 4F*                -26.732472901 Ry
:4F 001: 4F                 -25.922472093 Ry
:5DD001: 5D*                 -6.562057667 Ry
:5D 001: 5D                  -5.963920886 Ry

        2.ATOM      O  2-                 1 CORE STATES
:1S 002: 1S                 -36.098153716 Ry

------- UO2_8.scfm --------
:CINT001 Core Integral Atom   1   77.964434
:CINT002 Core Integral Atom   2    2.000000
     
       CHARGES OF NEW CHARGE DENSITY
:NTO   : INTERSTITIAL CHARGE =     7.538595
:NTO001: CHARGE SPHERE  1    =    86.137082
:NTO002: CHARGE SPHERE  2    =     7.144383

:NEC01: NUCLEAR AND ELECTRONIC CHARGE    108.00000   107.96444
     
       CHARGES OF OLD CHARGE DENSITY
:OTO   : INTERSTITIAL CHARGE =     7.603263
:OTO001: CHARGE SPHERE  1    =    86.167077
:OTO002: CHARGE SPHERE  2    =     7.114830
:DNEW  1   -0.0300
:DNEW  2    0.0296

:NEC02: NUCLEAR AND ELECTRONIC CHARGE    108.00000   108.00000
     
       CONVERGENCE TEST
:DTO001: DIFFERENCE IN SPHERE  1 =  0.0205725
:DTO002: DIFFERENCE IN SPHERE  2 =  0.0364836

:DIS  :  CHARGE DISTANCE       ( 0.0364836 for atom    2 spin 1)      0.0311799
:BIG check (qbig,qrms,qtot)    0.122D-01   0.227D-01   0.312D-01
 
******************************************************
* MULTISECANT MIXING VER6 RELEASE 6.0 OPTIONS        *
* Standard Mode with controls                        *
* Regularization       1.000E-06                     *
* Trust Region Control Active                        *
* Max Number of Memory Steps    8                    *
******************************************************
 
:PLANE:  INTERSTITIAL TOTAL      2.50763 DISTAN  3.197E-01 % 
:CHARG:  CLM CHARGE   /ATOM    345.90902 DISTAN  1.859E-02 % 
:DIRM :  MEMORY  0/8 RESCALES   1.00
:MIX  :   PRATT  REGULARIZATION: 1.00E-06  GREED: 0.025
     
       CHARGES OF MIXED CHARGE DENSITY
:CTO   : INTERSTITIAL CHARGE =     7.602535
:CTO001: CHARGE SPHERE  1    =    86.166327
:CTO002: CHARGE SPHERE  2    =     7.115569

:NEC03: NUCLEAR AND ELECTRONIC CHARGE    108.00000   108.00000

PW CHANGE     H    K    L       Current     Change     Residue
:PTO001:      0    0    0  8.28208930E-02 -8.219E-07 -3.288E-05
:PTO002:     -1   -1   -1  2.04755392E-01 -6.442E-06 -2.577E-04
:PTO003:      0    0   -2  1.00367012E-03 -1.735E-05 -6.941E-04
:PTO004:      0   -2   -2  2.86268880E-01  2.266E-05  9.065E-04
:PTO005:     -1   -1   -3  1.57034676E-01  1.131E-05  4.523E-04
:PTO006:     -2   -2   -2 -1.84277524E-02 -7.040E-07 -2.816E-05
:PTO007:      0    0   -4  4.45794109E-02  3.242E-06  1.297E-04
:PTO008:     -1   -3   -3  3.47076408E-02  6.545E-06  2.618E-04
:PTO009:      0   -2   -4 -5.09139102E-02 -2.677E-06 -1.071E-04
:PTO010:     -2   -2   -4  4.97578901E-02  1.064E-05  4.258E-04
:PTO011:     -3   -3   -3 -4.06009679E-03  6.268E-06  2.507E-04
:PTO012:     -1   -1   -5 -3.06615778E-03 -3.116E-06 -1.247E-04

:ENE  : ********** TOTAL ENERGY IN Ry =       -56437.55095546


------- UO2_8.scf0 --------


            ---------
:ITE074: 74. ITERATION
            ---------

:NATO :    2 INDEPENDENT AND    3 TOTAL ATOMS IN UNITCELL
       SUBSTANCE: blebleble                                                   

       LATTICE                      = F   
:POT  : POTENTIAL OPTION    5
:LAT  : LATTICE CONSTANTS= 10.67636 10.67636 10.67636    1.571    1.571    1.571
:VOL  : UNIT CELL VOLUME =     304.23507
       MODE OF CALCULATION IS       = RELA
       NON-SPINPOLARIZED CALCULATION
:IFFT  : FFT-parameters:   90   90   90 Factor: 2.00
       ATOMNUMBER=  1 U  4+      VCOUL-ZERO = -0.57734E+00
       ATOMNUMBER=  2 O  2-      VCOUL-ZERO =  0.78169E+00
:FIT001: LUSE= 13 SIGMA OF V-XC FIT FOR ATOM  1  0.4542213E-04
:FIT001: LUSE= 13 SIGMA OF V-XC FIT FOR ATOM  1  0.4542213E-04
:FIT002: LUSE= 13 SIGMA OF V-XC FIT FOR ATOM  2  0.9535945E-04
:FIT002: LUSE= 13 SIGMA OF V-XC FIT FOR ATOM  2  0.9535945E-04
:DEN  : DENSITY INTEGRAL  =        -20891.34064185   (Ry)
       ELS_POTENTIAL_AT Z=0 and Z=0.5:  -3.30550  -3.30550
       ELS_POTENTIAL_AT Y=0 and Y=0.5:   0.00000   0.00000
:VZERO:v0,v0c,v0x  -4.00098  -3.30550  -0.69548 v5,v5c,v5x  -4.00098  -3.30550  -0.69548
:VZERY:v0,v0c,v0x  -0.83316   0.00000  -0.83316 v5,v5c,v5x  -0.83316   0.00000  -0.83316
:VZERX:v0,v0c,v0x  -0.83316   0.00000  -0.83316 v5,v5c,v5x  -0.83316   0.00000  -0.83316

------- UO2_8.scf1 --------

          ATOMIC SPHERE DEPENDENT PARAMETERS FOR ATOM  U  4+     
:e__0001: OVERALL ENERGY PARAMETER IS    0.6419
          OVERALL BASIS SET ON ATOM IS LAPW
:E0_0001: E( 0)=    0.6419
             APW+lo
:E0_0001: E( 0)=   -2.3302   E(BOTTOM)=   -3.677   E(TOP)=   -0.983  5  6   230
             LOCAL ORBITAL
:E1_0001: E( 1)=   -1.2800   E(BOTTOM)=   -1.943   E(TOP)= -200.000  4 -1   218
             APW+lo
:E1_0001: E( 1)=    1.0419
             LOCAL ORBITAL
:E3_0001: E( 3)=    0.8966   E(BOTTOM)=    0.108   E(TOP)=    1.685  1  2   178
             APW+lo
:E2_0001: E( 2)=    0.6687   E(BOTTOM)=    0.669   E(TOP)= -200.000  3 -1   110
             APW+lo

          ATOMIC SPHERE DEPENDENT PARAMETERS FOR ATOM  O  2-     
:e__0002: OVERALL ENERGY PARAMETER IS    0.6419
          OVERALL BASIS SET ON ATOM IS LAPW
:E0_0002: E( 0)=   -0.3578   E(BOTTOM)=   -1.721   E(TOP)=    1.006  1  2   240
             APW+lo
:E0_0002: E( 0)=    1.0419
             LOCAL ORBITAL
:E1_0002: E( 1)=    0.6419
             APW+lo

       K=   0.00000   0.00000   0.00000            1
:RKM  : MATRIX SIZE  779LOs:  30  RKM= 8.42  WEIGHT= 1.00  PGR:    
       EIGENVALUES ARE:
:EIG00001:      -2.4095446   -0.5608774   -0.5608774   -0.5608774   -0.5579052
:EIG00006:      -0.4663725    0.3705673    0.3705673    0.3705673    0.5778211
:EIG00011:       0.5778211    0.5778211    0.8688574    0.8688574    0.8688574
:EIG00016:       0.8981707    0.9251571    0.9251571    0.9251571    0.9979849
:EIG00021:       1.0476607    1.0476607    1.4849918    1.4849918    1.4849918
:EIG00026:       1.7223266    1.7223266    1.7223266    2.0637667    2.4171876
:EIG00031:       2.4171876    2.4414435    2.4414435    2.4414435    2.7559317
:EIG00036:       2.7559317    2.7559317    2.9437014    2.9437014    2.9437014
:EIG00041:       2.9953854    3.3654068    3.3654068    3.4567279    3.4567279
:EIG00046:       3.4567279    3.5394965    3.5394965    3.5469038    3.5469038
 
:EIG00051:       3.5469038    3.5844088    3.7718967    3.7718967    3.7718967
:EIG00056:       3.8331803    3.8965468    3.8965468    3.8965468    3.9134952
:EIG00061:       3.9134952    3.9134952    3.9739057    3.9739057    3.9739057
:EIG00066:       4.2738132    4.7815163    4.7815163    4.7815163    5.0278624
:EIG00071:       5.0278624    5.0380427    5.0380427    5.0380427    5.2303597
:EIG00076:       5.6133736    5.6133736    5.6301445    5.6301445    5.6301445
:EIG00081:       5.7755526    5.7755526    5.7755526    5.9277137    5.9277137
:EIG00086:       5.9277137    6.1497458    6.1497458    6.1497458    6.2195392
:EIG00091:       6.2748942    6.2748942    6.2934290    6.2934290    6.3409810
:EIG00096:       6.3409810    6.3409810    6.4798855    6.5529043    6.5529043
 
:EIG00101:       6.5529043    6.5912044    6.5912044    6.5912044    6.6900344
:EIG00106:       6.7263419    6.7263419    6.7263419    6.9285113    6.9582360
:EIG00111:       6.9582360    6.9582360    7.0061505    7.0061505    7.0175170
:EIG00116:       7.0175170    7.0175170    7.0585011    7.0585011    7.0585011
:EIG00121:       7.2832997    7.2832997    7.2832997    7.7451290    7.7451290
:EIG00126:       7.7451290    7.7642632    7.7642632    7.7642632    7.8948561
:EIG00131:       7.8948561    7.8948561    7.9034422    7.9711197    7.9711197
:EIG00136:       8.0925394    8.0925394    8.1829750    8.1829750    8.1829750
:EIG00141:       8.2686180    8.2686180    8.2686180
       ********************************************************

:KPT   :      NUMBER OF K-POINTS:   145

------- UO2_8.scfso --------
   0.0   0.0 angle (M,z), angle (M,x) deg
 
        SPIN-ORBIT EIGENVALUES:
     K=   0.00000   0.00000   0.00000            1
      MATRIX SIZE=  286   WEIGHT= 1.00
     EIGENVALUES ARE:
          -2.4095446   -2.4095446   -0.9683338   -0.9683338   -0.5579052
          -0.5579052   -0.4663755   -0.4663755   -0.3949246   -0.3949246
          -0.3949246   -0.3949246    0.3687929    0.3687929    0.3687929
           0.3687929    0.3732940    0.3732940    0.5732840    0.5732840
           0.5796565    0.5796565    0.5796565    0.5796565    0.8391533
           0.8391533    0.8582884    0.8582884    0.8582884    0.8582884
           0.9177399    0.9177399    0.9308706    0.9308706    0.9308706
           0.9308706    0.9451041    0.9451041    0.9979849    0.9979849

           1.0454827    1.0454827    1.0454827    1.0454827    1.4741909
           1.4741909    1.4741909    1.4741909    1.5070628    1.5070628
           1.6616356    1.6616356    1.7496022    1.7496022    1.7496022
           1.7496022    2.0637667    2.0637667    2.4089331    2.4089331
           2.4089331    2.4089331    2.4450858    2.4450858    2.4450858
           2.4450858    2.4506458    2.4506458    2.5989538    2.5989538
           2.8431603    2.8431603    2.8431603    2.8431603    2.9400353
           2.9400353    2.9452266    2.9452266    2.9452266    2.9452266

           2.9965942    2.9965942    3.3609421    3.3609421    3.3609421
           3.3609421    3.4536136    3.4536136    3.4536136    3.4536136
           3.4736540    3.4736540    3.5394965    3.5394965    3.5394965
           3.5394965    3.5468894    3.5468894    3.5469110    3.5469110
           3.5469110    3.5469110    3.5844088    3.5844088    3.7719029
           3.7719029    3.7719029    3.7719029    3.7724347    3.7724347
           3.8331803    3.8331803    3.8965517    3.8965517    3.8965517
           3.8965517    3.8965523    3.8965523    3.9067132    3.9067132

           3.9178116    3.9178116    3.9178116    3.9178116    3.9727750
           3.9727750    3.9749542    3.9749542    3.9749542    3.9749542
           4.2739801    4.2739801
       ********************************************************

------- UO2_8.scf2 --------
:GMA  : POTENTIAL AND CHARGE CUT-OFF  12.00 Ry**.5
         Bandranges (emin - emax) and occupancy:
:BAN00018:  18    0.373294    0.554293  1.00000000
:BAN00019:  19    0.465793    0.573842  1.00000000
:BAN00020:  20    0.465793    0.573842  1.00000000
:BAN00021:  21    0.534738    0.596740  1.00000000
:BAN00022:  22    0.534738    0.596740  1.00000000
:BAN00023:  23    0.570722    0.622562  1.00000000
:BAN00024:  24    0.570722    0.622562  1.00000000
:BAN00025:  25    0.800762    0.839153  0.94577829
:BAN00026:  26    0.800762    0.839153  0.94577829
:BAN00027:  27    0.832699    0.858288  0.05422171
:BAN00028:  28    0.832699    0.858288  0.05422170
:BAN00029:  29    0.840388    0.858288  0.00000000
:BAN00030:  30    0.840388    0.858288  0.00000000
:BAN00031:  31    0.865750    0.917779  0.00000000
:BAN00032:  32    0.865750    0.917779  0.00000000
:BAN00033:  33    0.891365    0.930871  0.00000000
        Energy to separate low and high energystates:    0.75076


:NLDA  : NUMBER OF ELECTRONS          =  26.000

:FLDA  : F E R M I - ENERGY           =   1.33443




:POS001: AT.NR.   1 POSITION = 0.00000 0.00000 0.00000  MULTIPLICITY =  1

       LMMAX  5
       LM=   0 0  4 0  4 4  6 0  6 4




:POS002: AT.NR.   2 POSITION = 0.00000 0.00000 0.00000  MULTIPLICITY =  2

       LMMAX  6
       LM=   0 0  4 0  4 4  6 0  6 4 -3 2
:FER DMFT Fermi Energy   0.79561
:EORB          0.094389229
:SUM SUM OF DMFT BAND ENERGIES         -2.694445791

:CHA001: TOTAL CHARGE INSIDE SPHERE   1 =     8.170299
:PCS001: PARTIAL CHARGES SPHERE =  1 S,P,D,F,      D-EG,D-T2G 
:QTL001: 1.7953 4.1648 0.2188 1.9888 0.0000 0.0000 0.0000 0.0484 0.1820 0.0000 0.0000 0.0000
        Q-s-low E-s-low   Q-p-low E-p-low   Q-d-low E-d-low   Q-f-low E-f-low
:EPL001:  1.7951 -2.3322    4.1633 -0.5468    0.2172  0.4166    0.2240  0.5345
        Q-s-hi  E-s-hi    Q-p-hi  E-p-hi    Q-d-hi  E-d-hi    Q-f-hi  E-f-hi 
:EPH001:  0.0002  0.8942    0.0015  0.8603    0.0016  0.8636    1.7648  0.8294

:CHA002: TOTAL CHARGE INSIDE SPHERE   2 =     5.144412
:PCS002: PARTIAL CHARGES SPHERE =  2 S,P,D,F,      D-EG,D-T2G 
:QTL002: 1.5769 3.5581 0.0080 0.0012 0.0000 0.0000 0.0000 0.0029 0.0087 0.0000 0.0000 0.0000
        Q-s-low E-s-low   Q-p-low E-p-low   Q-d-low E-d-low   Q-f-low E-f-low
:EPL002:  1.5754 -0.4882    3.5405  0.4966    0.0065 -0.0280    0.0010 -0.1730
        Q-s-hi  E-s-hi    Q-p-hi  E-p-hi    Q-d-hi  E-d-hi    Q-f-hi  E-f-hi 
:EPH002:  0.0015  0.8454    0.0176  0.8505    0.0015  0.8276    0.0002  0.8344

:CHA  : TOTAL CHARGE INSIDE UNIT CELL =      26.000000

:ESUM  : SUM OF EIGENVALUES =          -2.625742639


------- UO2_8.scfc --------

        1.ATOM      U  4+                21 CORE STATES
:1S 001: 1S               -8506.441116539 Ry
:2S 001: 2S               -1587.888165014 Ry
:2PP001: 2P*              -1531.134204082 Ry
:2P 001: 2P               -1249.938195128 Ry
:3S 001: 3S                -400.027713753 Ry
:3PP001: 3P*               -374.254515904 Ry
:3P 001: 3P                -309.471150288 Ry
:3DD001: 3D*               -268.658835769 Ry
:3D 001: 3D                -255.513558391 Ry
:4S 001: 4S                -101.096563783 Ry
:4PP001: 4P*                -89.503017495 Ry
:4P 001: 4P                 -72.593221172 Ry
:4DD001: 4D*                -54.128415425 Ry
:4D 001: 4D                 -51.019810697 Ry
:5S 001: 5S                 -21.688579802 Ry
:5PP001: 5P*                -17.181869916 Ry
:5P 001: 5P                 -13.151758589 Ry
:4FF001: 4F*                -26.733315982 Ry
:4F 001: 4F                 -25.923313910 Ry
:5DD001: 5D*                 -6.562778676 Ry
:5D 001: 5D                  -5.964633294 Ry

        2.ATOM      O  2-                 1 CORE STATES
:1S 002: 1S                 -36.096795164 Ry

------- UO2_8.scfm --------
:CINT001 Core Integral Atom   1   77.964439
:CINT002 Core Integral Atom   2    2.000000
     
       CHARGES OF NEW CHARGE DENSITY
:NTO   : INTERSTITIAL CHARGE =     7.540915
:NTO001: CHARGE SPHERE  1    =    86.134738
:NTO002: CHARGE SPHERE  2    =     7.144411

:NEC01: NUCLEAR AND ELECTRONIC CHARGE    108.00000   107.96448
     
       CHARGES OF OLD CHARGE DENSITY
:OTO   : INTERSTITIAL CHARGE =     7.602535
:OTO001: CHARGE SPHERE  1    =    86.166327
:OTO002: CHARGE SPHERE  2    =     7.115569
:DNEW  1   -0.0316
:DNEW  2    0.0288

:NEC02: NUCLEAR AND ELECTRONIC CHARGE    108.00000   108.00000
     
       CONVERGENCE TEST
:DTO001: DIFFERENCE IN SPHERE  1 =  0.0220302
:DTO002: DIFFERENCE IN SPHERE  2 =  0.0351692

:DIS  :  CHARGE DISTANCE       ( 0.0351692 for atom    2 spin 1)      0.0307896
:BIG check (qbig,qrms,qtot)    0.117D-01   0.222D-01   0.308D-01
 
******************************************************
* MULTISECANT MIXING VER6 RELEASE 6.0 OPTIONS        *
* Standard Mode with controls                        *
* Regularization       1.000E-06                     *
* Trust Region Control Active                        *
* Max Number of Memory Steps    8                    *
******************************************************
 
:PLANE:  INTERSTITIAL TOTAL      2.50769 DISTAN  3.162E-01 % 
:CHARG:  CLM CHARGE   /ATOM    345.90899 DISTAN  1.836E-02 % 
 
 Step History DMIX, Red, Pred, Trust, FRMS, FABS
  2  2.5000E-02  1.0000E+00  1.0000E+00  1.0000E+00
  
:DIRM :  MEMORY  1/8 RESCALES  16.03
:MIX  :   PRATT  REGULARIZATION: 1.00E-06  GREED: 0.062  Expand 2.50  0.06                
     
       CHARGES OF MIXED CHARGE DENSITY
:CTO   : INTERSTITIAL CHARGE =     7.600352
:CTO001: CHARGE SPHERE  1    =    86.164078
:CTO002: CHARGE SPHERE  2    =     7.117785

:NEC03: NUCLEAR AND ELECTRONIC CHARGE    108.00000   108.00000

PW CHANGE     H    K    L       Current     Change     Residue
:PTO001:      0    0    0  8.28184273E-02 -2.466E-06 -2.273E-05
:PTO002:     -1   -1   -1  2.04736067E-01 -1.933E-05 -2.515E-04
:PTO003:      0    0   -2  9.51615809E-04 -5.205E-05 -6.788E-04
:PTO004:      0   -2   -2  2.86336867E-01  6.799E-05  8.923E-04
:PTO005:     -1   -1   -3  1.57068599E-01  3.392E-05  4.804E-04
:PTO006:     -2   -2   -2 -1.84298644E-02 -2.112E-06 -2.308E-06
:PTO007:      0    0   -4  4.45891364E-02  9.726E-06  1.241E-04
:PTO008:     -1   -3   -3  3.47272769E-02  1.964E-05  2.869E-04
:PTO009:      0   -2   -4 -5.09219410E-02 -8.031E-06 -5.745E-05
:PTO010:     -2   -2   -4  4.97898239E-02  3.193E-05  4.195E-04
:PTO011:     -3   -3   -3 -4.04129150E-03  1.881E-05  2.554E-04
:PTO012:     -1   -1   -5 -3.07550721E-03 -9.349E-06 -1.191E-04

:ENE  : ********** TOTAL ENERGY IN Ry =       -56437.55121330


------- UO2_8.scf0 --------


            ---------
:ITE075: 75. ITERATION
            ---------

:NATO :    2 INDEPENDENT AND    3 TOTAL ATOMS IN UNITCELL
       SUBSTANCE: blebleble                                                   

       LATTICE                      = F   
:POT  : POTENTIAL OPTION    5
:LAT  : LATTICE CONSTANTS= 10.67636 10.67636 10.67636    1.571    1.571    1.571
:VOL  : UNIT CELL VOLUME =     304.23507
       MODE OF CALCULATION IS       = RELA
       NON-SPINPOLARIZED CALCULATION
:IFFT  : FFT-parameters:   90   90   90 Factor: 2.00
       ATOMNUMBER=  1 U  4+      VCOUL-ZERO = -0.57837E+00
       ATOMNUMBER=  2 O  2-      VCOUL-ZERO =  0.78266E+00
:FIT001: LUSE= 13 SIGMA OF V-XC FIT FOR ATOM  1  0.4536712E-04
:FIT001: LUSE= 13 SIGMA OF V-XC FIT FOR ATOM  1  0.4536712E-04
:FIT002: LUSE= 13 SIGMA OF V-XC FIT FOR ATOM  2  0.9497406E-04
:FIT002: LUSE= 13 SIGMA OF V-XC FIT FOR ATOM  2  0.9497406E-04
:DEN  : DENSITY INTEGRAL  =        -20891.17090229   (Ry)
       ELS_POTENTIAL_AT Z=0 and Z=0.5:  -3.30752  -3.30752
       ELS_POTENTIAL_AT Y=0 and Y=0.5:   0.00000   0.00000
:VZERO:v0,v0c,v0x  -4.00273  -3.30752  -0.69521 v5,v5c,v5x  -4.00273  -3.30752  -0.69521
:VZERY:v0,v0c,v0x  -0.83311   0.00000  -0.83311 v5,v5c,v5x  -0.83311   0.00000  -0.83311
:VZERX:v0,v0c,v0x  -0.83311   0.00000  -0.83311 v5,v5c,v5x  -0.83311   0.00000  -0.83311

------- UO2_8.scf1 --------

          ATOMIC SPHERE DEPENDENT PARAMETERS FOR ATOM  U  4+     
:e__0001: OVERALL ENERGY PARAMETER IS    0.6419
          OVERALL BASIS SET ON ATOM IS LAPW
:E0_0001: E( 0)=    0.6419
             APW+lo
:E0_0001: E( 0)=   -2.3319   E(BOTTOM)=   -3.678   E(TOP)=   -0.985  5  6   237
             LOCAL ORBITAL
:E1_0001: E( 1)=   -1.2800   E(BOTTOM)=   -1.944   E(TOP)= -200.000  4 -1   218
             APW+lo
:E1_0001: E( 1)=    1.0419
             LOCAL ORBITAL
:E3_0001: E( 3)=    0.8948   E(BOTTOM)=    0.107   E(TOP)=    1.683  1  2   176
             APW+lo
:E2_0001: E( 2)=    0.6672   E(BOTTOM)=    0.667   E(TOP)= -200.000  3 -1   104
             APW+lo

          ATOMIC SPHERE DEPENDENT PARAMETERS FOR ATOM  O  2-     
:e__0002: OVERALL ENERGY PARAMETER IS    0.6419
          OVERALL BASIS SET ON ATOM IS LAPW
:E0_0002: E( 0)=   -0.3556   E(BOTTOM)=   -1.720   E(TOP)=    1.008  1  2   237
             APW+lo
:E0_0002: E( 0)=    1.0419
             LOCAL ORBITAL
:E1_0002: E( 1)=    0.6419
             APW+lo

       K=   0.00000   0.00000   0.00000            1
:RKM  : MATRIX SIZE  779LOs:  30  RKM= 8.42  WEIGHT= 1.00  PGR:    
       EIGENVALUES ARE:
:EIG00001:      -2.4110635   -0.5620287   -0.5620287   -0.5620287   -0.5562710
:EIG00006:      -0.4645043    0.3716916    0.3716916    0.3716916    0.5789465
:EIG00011:       0.5789465    0.5789465    0.8672239    0.8672239    0.8672239
:EIG00016:       0.8966390    0.9242166    0.9242166    0.9242166    0.9983163
:EIG00021:       1.0471784    1.0471784    1.4854081    1.4854081    1.4854081
:EIG00026:       1.7222766    1.7222766    1.7222766    2.0637385    2.4170742
:EIG00031:       2.4170742    2.4416918    2.4416918    2.4416918    2.7560192
:EIG00036:       2.7560192    2.7560192    2.9434278    2.9434278    2.9434278
:EIG00041:       2.9958805    3.3650179    3.3650179    3.4568933    3.4568933
:EIG00046:       3.4568933    3.5401778    3.5401778    3.5466604    3.5466604
 
:EIG00051:       3.5466604    3.5843042    3.7721243    3.7721243    3.7721243
:EIG00056:       3.8329464    3.8966025    3.8966025    3.8966025    3.9133602
:EIG00061:       3.9133602    3.9133602    3.9738028    3.9738028    3.9738028
:EIG00066:       4.2738272    4.7820814    4.7820814    4.7820814    5.0278052
:EIG00071:       5.0278052    5.0385019    5.0385019    5.0385019    5.2302496
:EIG00076:       5.6129646    5.6129646    5.6298300    5.6298300    5.6298300
:EIG00081:       5.7755790    5.7755790    5.7755790    5.9272565    5.9272565
:EIG00086:       5.9272565    6.1501250    6.1501250    6.1501250    6.2198120
:EIG00091:       6.2751085    6.2751085    6.2936780    6.2936780    6.3408469
:EIG00096:       6.3408469    6.3408469    6.4803196    6.5529932    6.5529932
 
:EIG00101:       6.5529932    6.5908719    6.5908719    6.5908719    6.6900838
:EIG00106:       6.7266605    6.7266605    6.7266605    6.9283962    6.9583121
:EIG00111:       6.9583121    6.9583121    7.0062731    7.0062731    7.0177631
:EIG00116:       7.0177631    7.0177631    7.0585019    7.0585019    7.0585019
:EIG00121:       7.2832087    7.2832087    7.2832087    7.7451835    7.7451835
:EIG00126:       7.7451835    7.7643330    7.7643330    7.7643330    7.8948934
:EIG00131:       7.8948934    7.8948934    7.9030626    7.9710017    7.9710017
:EIG00136:       8.0925654    8.0925654    8.1836379    8.1836379    8.1836379
:EIG00141:       8.2685945    8.2685945    8.2685945
       ********************************************************

:KPT   :      NUMBER OF K-POINTS:   145

------- UO2_8.scfso --------
   0.0   0.0 angle (M,z), angle (M,x) deg
 
        SPIN-ORBIT EIGENVALUES:
     K=   0.00000   0.00000   0.00000            1
      MATRIX SIZE=  286   WEIGHT= 1.00
     EIGENVALUES ARE:
          -2.4110635   -2.4110635   -0.9696385   -0.9696385   -0.5562710
          -0.5562710   -0.4645074   -0.4645074   -0.3959962   -0.3959962
          -0.3959962   -0.3959962    0.3699041    0.3699041    0.3699041
           0.3699041    0.3744391    0.3744391    0.5745284    0.5745284
           0.5806895    0.5806895    0.5806895    0.5806895    0.8375298
           0.8375298    0.8568550    0.8568550    0.8568550    0.8568550
           0.9161944    0.9161944    0.9297968    0.9297968    0.9297968
           0.9297968    0.9440882    0.9440882    0.9983163    0.9983163

           1.0450025    1.0450025    1.0450025    1.0450025    1.4745963
           1.4745963    1.4745963    1.4745963    1.5074983    1.5074983
           1.6615182    1.6615182    1.7495843    1.7495843    1.7495843
           1.7495843    2.0637385    2.0637385    2.4089152    2.4089152
           2.4089152    2.4089152    2.4452475    2.4452475    2.4452475
           2.4452475    2.4508804    2.4508804    2.5990808    2.5990808
           2.8432309    2.8432309    2.8432309    2.8432309    2.9397784
           2.9397784    2.9449529    2.9449529    2.9449529    2.9449529

           2.9970733    2.9970733    3.3605875    3.3605875    3.3605875
           3.3605875    3.4537503    3.4537503    3.4537503    3.4537503
           3.4738082    3.4738082    3.5401778    3.5401778    3.5401778
           3.5401778    3.5466460    3.5466460    3.5466676    3.5466676
           3.5466676    3.5466676    3.5843042    3.5843042    3.7721341
           3.7721341    3.7721341    3.7721341    3.7726598    3.7726598
           3.8329464    3.8329464    3.8966072    3.8966072    3.8966077
           3.8966077    3.8966077    3.8966077    3.9065991    3.9065991

           3.9176644    3.9176644    3.9176644    3.9176644    3.9726734
           3.9726734    3.9748491    3.9748491    3.9748491    3.9748491
           4.2739939    4.2739939
       ********************************************************

------- UO2_8.scf2 --------
:GMA  : POTENTIAL AND CHARGE CUT-OFF  12.00 Ry**.5
         Bandranges (emin - emax) and occupancy:
:BAN00018:  18    0.374439    0.555349  1.00000000
:BAN00019:  19    0.467001    0.575412  1.00000000
:BAN00020:  20    0.467001    0.575412  1.00000000
:BAN00021:  21    0.535877    0.598144  1.00000000
:BAN00022:  22    0.535877    0.598144  1.00000000
:BAN00023:  23    0.571778    0.623979  1.00000000
:BAN00024:  24    0.571778    0.623979  1.00000000
:BAN00025:  25    0.799266    0.837530  0.94583722
:BAN00026:  26    0.799266    0.837530  0.94583722
:BAN00027:  27    0.831231    0.856855  0.05416278
:BAN00028:  28    0.831231    0.856855  0.05416278
:BAN00029:  29    0.839008    0.856855  0.00000000
:BAN00030:  30    0.839008    0.856855  0.00000000
:BAN00031:  31    0.864236    0.916244  0.00000000
:BAN00032:  32    0.864236    0.916244  0.00000000
:BAN00033:  33    0.889907    0.929797  0.00000000
        Energy to separate low and high energystates:    0.74927


:NLDA  : NUMBER OF ELECTRONS          =  26.000

:FLDA  : F E R M I - ENERGY           =   1.33292




:POS001: AT.NR.   1 POSITION = 0.00000 0.00000 0.00000  MULTIPLICITY =  1

       LMMAX  5
       LM=   0 0  4 0  4 4  6 0  6 4




:POS002: AT.NR.   2 POSITION = 0.00000 0.00000 0.00000  MULTIPLICITY =  2

       LMMAX  6
       LM=   0 0  4 0  4 4  6 0  6 4 -3 2
:FER DMFT Fermi Energy   0.79767
:EORB          0.085504174
:SUM SUM OF DMFT BAND ENERGIES         -2.676070318

:CHA001: TOTAL CHARGE INSIDE SPHERE   1 =     8.172658
:PCS001: PARTIAL CHARGES SPHERE =  1 S,P,D,F,      D-EG,D-T2G 
:QTL001: 1.7955 4.1660 0.2202 1.9884 0.0000 0.0000 0.0000 0.0488 0.1829 0.0000 0.0000 0.0000
        Q-s-low E-s-low   Q-p-low E-p-low   Q-d-low E-d-low   Q-f-low E-f-low
:EPL001:  1.7953 -2.3335    4.1645 -0.5479    0.2186  0.4179    0.2236  0.5356
        Q-s-hi  E-s-hi    Q-p-hi  E-p-hi    Q-d-hi  E-d-hi    Q-f-hi  E-f-hi 
:EPH001:  0.0002  0.8927    0.0015  0.8587    0.0017  0.8620    1.7647  0.8280

:CHA002: TOTAL CHARGE INSIDE SPHERE   2 =     5.139414
:PCS002: PARTIAL CHARGES SPHERE =  2 S,P,D,F,      D-EG,D-T2G 
:QTL002: 1.5764 3.5536 0.0080 0.0012 0.0000 0.0000 0.0000 0.0029 0.0087 0.0000 0.0000 0.0000
        Q-s-low E-s-low   Q-p-low E-p-low   Q-d-low E-d-low   Q-f-low E-f-low
:EPL002:  1.5749 -0.4864    3.5360  0.4978    0.0065 -0.0262    0.0010 -0.1721
        Q-s-hi  E-s-hi    Q-p-hi  E-p-hi    Q-d-hi  E-d-hi    Q-f-hi  E-f-hi 
:EPH002:  0.0015  0.8439    0.0176  0.8490    0.0015  0.8261    0.0002  0.8329

:CHA  : TOTAL CHARGE INSIDE UNIT CELL =      26.000000

:ESUM  : SUM OF EIGENVALUES =          -2.615992927


------- UO2_8.scfc --------

        1.ATOM      U  4+                21 CORE STATES
:1S 001: 1S               -8506.443810155 Ry
:2S 001: 2S               -1587.890864125 Ry
:2PP001: 2P*              -1531.136902250 Ry
:2P 001: 2P               -1249.940894039 Ry
:3S 001: 3S                -400.030389048 Ry
:3PP001: 3P*               -374.257195059 Ry
:3P 001: 3P                -309.473819134 Ry
:3DD001: 3D*               -268.661516625 Ry
:3D 001: 3D                -255.516236801 Ry
:4S 001: 4S                -101.099108731 Ry
:4PP001: 4P*                -89.505563709 Ry
:4P 001: 4P                 -72.595741812 Ry
:4DD001: 4D*                -54.130939326 Ry
:4D 001: 4D                 -51.022327268 Ry
:5S 001: 5S                 -21.690908207 Ry
:5PP001: 5P*                -17.184177937 Ry
:5P 001: 5P                 -13.154005227 Ry
:4FF001: 4F*                -26.735845223 Ry
:4F 001: 4F                 -25.925839364 Ry
:5DD001: 5D*                 -6.564941710 Ry
:5D 001: 5D                  -5.966770526 Ry

        2.ATOM      O  2-                 1 CORE STATES
:1S 002: 1S                 -36.092719500 Ry

------- UO2_8.scfm --------
:CINT001 Core Integral Atom   1   77.964457
:CINT002 Core Integral Atom   2    2.000000
     
       CHARGES OF NEW CHARGE DENSITY
:NTO   : INTERSTITIAL CHARGE =     7.548535
:NTO001: CHARGE SPHERE  1    =    86.137115
:NTO002: CHARGE SPHERE  2    =     7.139414

:NEC01: NUCLEAR AND ELECTRONIC CHARGE    108.00000   107.96448
     
       CHARGES OF OLD CHARGE DENSITY
:OTO   : INTERSTITIAL CHARGE =     7.600352
:OTO001: CHARGE SPHERE  1    =    86.164078
:OTO002: CHARGE SPHERE  2    =     7.117785
:DNEW  1   -0.0270
:DNEW  2    0.0216

:NEC02: NUCLEAR AND ELECTRONIC CHARGE    108.00000   108.00000
     
       CONVERGENCE TEST
:DTO001: DIFFERENCE IN SPHERE  1 =  0.0190279
:DTO002: DIFFERENCE IN SPHERE  2 =  0.0252242

:DIS  :  CHARGE DISTANCE       ( 0.0252242 for atom    2 spin 1)      0.0231588
:BIG check (qbig,qrms,qtot)    0.841D-02   0.165D-01   0.232D-01
 
******************************************************
* MULTISECANT MIXING VER6 RELEASE 6.0 OPTIONS        *
* Standard Mode with controls                        *
* Regularization       1.000E-06                     *
* Trust Region Control Active                        *
* Max Number of Memory Steps    8                    *
******************************************************
 
:PLANE:  INTERSTITIAL TOTAL      2.50784 DISTAN  2.616E-01 % 
:CHARG:  CLM CHARGE   /ATOM    345.90891 DISTAN  1.449E-02 % 
 
 Step History DMIX, Red, Pred, Trust, FRMS, FABS
  2  2.5000E-02  1.0000E+00  1.0000E+00  1.0000E+00
  3  6.2500E-02  1.0000E+00  1.0000E+00  1.0000E+00
  
:NORMS:  Nuclear, Spectral, Froebius, Shanno-Pua   0.3046E+01  0.2870E+01  0.2876E+01  0.2916E+00
:INFO :  Number of Memory Steps    2 Skipping    0
:INFO :  SLambda=    3.0000000  Max    3.0000000

Eigenvalues, unscaled except for SY+YY
   #     SY Real        SY Imag          SS             YY         SY+YY Real      SY+YY Imag
   1   5.796473E-01   0.000000E+00   2.418644E-01   7.479901E-03   3.733832E+00   0.000000E+00
   2  -4.972689E-12   0.000000E+00  -2.775558E-17   1.992520E+00   5.110170E-03   0.000000E+00
 
:INFO :  Increased using Multisecant Shanno-Phua
:INFO :  Singular value   3.739E+00 Weight  1.0000E+00 Projections   3.889E-01  9.469E-02
:INFO :  Singular value   5.103E-03 Weight  1.0000E+00 Projections  -5.101E-01 -6.344E-01
 
:DIRM :  MEMORY 2/8 RESCALE  15.77 RED 0.808 PRED 1.000 NEXT 0.476
:INFO :  Blimit    1.344E+00  1.045E+00  4.861E-01  2.032E+00
:DIRP :  |MSR1|= 1.322E-02 |PRATT|= 1.035E-01 ANGLE=   6.9 DEGREES
:DIRQ :  |MSR1|= 1.206E-02 |PRATT|= 1.002E-01 ANGLE=  10.4 DEGREES
:DIR  :  |MSR1|= 1.789E-02 |PRATT|= 1.441E-01 ANGLE=   8.9 DEGREES
:MIX  :   MSE1   REGULARIZATION: 1.99E-06  GREED: 0.073  Newton 1.00  0.12                
     
       CHARGES OF MIXED CHARGE DENSITY
:CTO   : INTERSTITIAL CHARGE =     7.597575
:CTO001: CHARGE SPHERE  1    =    86.161700
:CTO002: CHARGE SPHERE  2    =     7.120362

:NEC03: NUCLEAR AND ELECTRONIC CHARGE    108.00000   108.00000

PW CHANGE     H    K    L       Current     Change     Residue
:PTO001:      0    0    0  8.28169183E-02 -1.509E-06  2.718E-06
:PTO002:     -1   -1   -1  2.04723915E-01 -1.215E-05 -1.596E-04
:PTO003:      0    0   -2  8.94903793E-04 -5.671E-05 -5.008E-04
:PTO004:      0   -2   -2  2.86436633E-01  9.977E-05  7.402E-04
:PTO005:     -1   -1   -3  1.57144951E-01  7.635E-05  5.304E-04
:PTO006:     -2   -2   -2 -1.84104794E-02  1.939E-05  1.025E-04
:PTO007:      0    0   -4  4.45986813E-02  9.545E-06  8.380E-05
:PTO008:     -1   -3   -3  3.47689594E-02  4.168E-05  3.215E-04
:PTO009:      0   -2   -4 -5.09097207E-02  1.222E-05  9.764E-05
:PTO010:     -2   -2   -4  4.98344464E-02  4.462E-05  3.423E-04
:PTO011:     -3   -3   -3 -4.00907144E-03  3.222E-05  2.388E-04
:PTO012:     -1   -1   -5 -3.09097332E-03 -1.547E-05 -9.789E-05

:ENE  : ********** TOTAL ENERGY IN Ry =       -56437.55141019


------- UO2_8.scf0 --------


            ---------
:ITE076: 76. ITERATION
            ---------

:NATO :    2 INDEPENDENT AND    3 TOTAL ATOMS IN UNITCELL
       SUBSTANCE: blebleble                                                   

       LATTICE                      = F   
:POT  : POTENTIAL OPTION    5
:LAT  : LATTICE CONSTANTS= 10.67636 10.67636 10.67636    1.571    1.571    1.571
:VOL  : UNIT CELL VOLUME =     304.23507
       MODE OF CALCULATION IS       = RELA
       NON-SPINPOLARIZED CALCULATION
:IFFT  : FFT-parameters:   90   90   90 Factor: 2.00
       ATOMNUMBER=  1 U  4+      VCOUL-ZERO = -0.57959E+00
       ATOMNUMBER=  2 O  2-      VCOUL-ZERO =  0.78382E+00
:FIT001: LUSE= 13 SIGMA OF V-XC FIT FOR ATOM  1  0.4533121E-04
:FIT001: LUSE= 13 SIGMA OF V-XC FIT FOR ATOM  1  0.4533121E-04
:FIT002: LUSE= 13 SIGMA OF V-XC FIT FOR ATOM  2  0.9436442E-04
:FIT002: LUSE= 13 SIGMA OF V-XC FIT FOR ATOM  2  0.9436442E-04
:DEN  : DENSITY INTEGRAL  =        -20891.02788702   (Ry)
       ELS_POTENTIAL_AT Z=0 and Z=0.5:  -3.30992  -3.30992
       ELS_POTENTIAL_AT Y=0 and Y=0.5:   0.00000   0.00000
:VZERO:v0,v0c,v0x  -4.00473  -3.30992  -0.69481 v5,v5c,v5x  -4.00473  -3.30992  -0.69481
:VZERY:v0,v0c,v0x  -0.83303   0.00000  -0.83303 v5,v5c,v5x  -0.83303   0.00000  -0.83303
:VZERX:v0,v0c,v0x  -0.83303   0.00000  -0.83303 v5,v5c,v5x  -0.83303   0.00000  -0.83303

------- UO2_8.scf1 --------

          ATOMIC SPHERE DEPENDENT PARAMETERS FOR ATOM  U  4+     
:e__0001: OVERALL ENERGY PARAMETER IS    0.6419
          OVERALL BASIS SET ON ATOM IS LAPW
:E0_0001: E( 0)=    0.6419
             APW+lo
:E0_0001: E( 0)=   -2.3337   E(BOTTOM)=   -3.680   E(TOP)=   -0.987  5  6   238
             LOCAL ORBITAL
:E1_0001: E( 1)=   -1.2800   E(BOTTOM)=   -1.946   E(TOP)= -200.000  4 -1   218
             APW+lo
:E1_0001: E( 1)=    1.0419
             LOCAL ORBITAL
:E3_0001: E( 3)=    0.8929   E(BOTTOM)=    0.105   E(TOP)=    1.681  1  2   182
             APW+lo
:E2_0001: E( 2)=    0.6657   E(BOTTOM)=    0.666   E(TOP)= -200.000  3 -1   110
             APW+lo

          ATOMIC SPHERE DEPENDENT PARAMETERS FOR ATOM  O  2-     
:e__0002: OVERALL ENERGY PARAMETER IS    0.6419
          OVERALL BASIS SET ON ATOM IS LAPW
:E0_0002: E( 0)=   -0.3530   E(BOTTOM)=   -1.717   E(TOP)=    1.011  1  2   233
             APW+lo
:E0_0002: E( 0)=    1.0419
             LOCAL ORBITAL
:E1_0002: E( 1)=    0.6419
             APW+lo

       K=   0.00000   0.00000   0.00000            1
:RKM  : MATRIX SIZE  779LOs:  30  RKM= 8.42  WEIGHT= 1.00  PGR:    
       EIGENVALUES ARE:
:EIG00001:      -2.4126752   -0.5632741   -0.5632741   -0.5632741   -0.5543913
:EIG00006:      -0.4623592    0.3729845    0.3729845    0.3729845    0.5802450
:EIG00011:       0.5802450    0.5802450    0.8655382    0.8655382    0.8655382
:EIG00016:       0.8951025    0.9232918    0.9232918    0.9232918    0.9986991
:EIG00021:       1.0466415    1.0466415    1.4859134    1.4859134    1.4859134
:EIG00026:       1.7222421    1.7222421    1.7222421    2.0637128    2.4169621
:EIG00031:       2.4169621    2.4419913    2.4419913    2.4419913    2.7561580
:EIG00036:       2.7561580    2.7561580    2.9431571    2.9431571    2.9431571
:EIG00041:       2.9964820    3.3645981    3.3645981    3.4571141    3.4571141
:EIG00046:       3.4571141    3.5409716    3.5409716    3.5463829    3.5463829
 
:EIG00051:       3.5463829    3.5842120    3.7724035    3.7724035    3.7724035
:EIG00056:       3.8326741    3.8966703    3.8966703    3.8966703    3.9132261
:EIG00061:       3.9132261    3.9132261    3.9737016    3.9737016    3.9737016
:EIG00066:       4.2738788    4.7827309    4.7827309    4.7827309    5.0277569
:EIG00071:       5.0277569    5.0390347    5.0390347    5.0390347    5.2301268
:EIG00076:       5.6125162    5.6125162    5.6295179    5.6295179    5.6295179
:EIG00081:       5.7756293    5.7756293    5.7756293    5.9267600    5.9267600
:EIG00086:       5.9267600    6.1505766    6.1505766    6.1505766    6.2201340
:EIG00091:       6.2753590    6.2753590    6.2939900    6.2939900    6.3407078
:EIG00096:       6.3407078    6.3407078    6.4808376    6.5531041    6.5531041
 
:EIG00101:       6.5531041    6.5904939    6.5904939    6.5904939    6.6901759
:EIG00106:       6.7270286    6.7270286    6.7270286    6.9282591    6.9584175
:EIG00111:       6.9584175    6.9584175    7.0064186    7.0064186    7.0180483
:EIG00116:       7.0180483    7.0180483    7.0585299    7.0585299    7.0585299
:EIG00121:       7.2831425    7.2831425    7.2831425    7.7452659    7.7452659
:EIG00126:       7.7452659    7.7644307    7.7644307    7.7644307    7.8949475
:EIG00131:       7.8949475    7.8949475    7.9026515    7.9708699    7.9708699
:EIG00136:       8.0925996    8.0925996    8.1843979    8.1843979    8.1843979
:EIG00141:       8.2685772    8.2685772    8.2685772
       ********************************************************

:KPT   :      NUMBER OF K-POINTS:   145

------- UO2_8.scfso --------
   0.0   0.0 angle (M,z), angle (M,x) deg
 
        SPIN-ORBIT EIGENVALUES:
     K=   0.00000   0.00000   0.00000            1
      MATRIX SIZE=  286   WEIGHT= 1.00
     EIGENVALUES ARE:
          -2.4126752   -2.4126752   -0.9710421   -0.9710421   -0.5543913
          -0.5543913   -0.4623624   -0.4623624   -0.3971584   -0.3971584
          -0.3971584   -0.3971584    0.3711821    0.3711821    0.3711821
           0.3711821    0.3757555    0.3757555    0.5759612    0.5759612
           0.5818839    0.5818839    0.5818839    0.5818839    0.8358676
           0.8358676    0.8553903    0.8553903    0.8553903    0.8553903
           0.9146309    0.9146309    0.9287280    0.9287280    0.9287280
           0.9287280    0.9430741    0.9430741    0.9986991    0.9986991

           1.0444682    1.0444682    1.0444682    1.0444682    1.4750896
           1.4750896    1.4750896    1.4750896    1.5080242    1.5080242
           1.6614095    1.6614095    1.7495852    1.7495852    1.7495852
           1.7495852    2.0637128    2.0637128    2.4089101    2.4089101
           2.4089101    2.4089101    2.4454501    2.4454501    2.4454501
           2.4454501    2.4511645    2.4511645    2.5992605    2.5992605
           2.8433520    2.8433520    2.8433520    2.8433520    2.9395257
           2.9395257    2.9446822    2.9446822    2.9446822    2.9446822

           2.9976574    2.9976574    3.3602066    3.3602066    3.3602066
           3.3602066    3.4539385    3.4539385    3.4539385    3.4539385
           3.4740165    3.4740165    3.5409716    3.5409716    3.5409716
           3.5409716    3.5463685    3.5463685    3.5463901    3.5463901
           3.5463901    3.5463901    3.5842120    3.5842120    3.7724168
           3.7724168    3.7724168    3.7724168    3.7729367    3.7729367
           3.8326741    3.8326741    3.8966741    3.8966741    3.8966760
           3.8966760    3.8966760    3.8966760    3.9064890    3.9064890

           3.9175164    3.9175164    3.9175164    3.9175164    3.9725734
           3.9725734    3.9747457    3.9747457    3.9747457    3.9747457
           4.2740452    4.2740452
       ********************************************************

------- UO2_8.scf2 --------
:GMA  : POTENTIAL AND CHARGE CUT-OFF  12.00 Ry**.5
         Bandranges (emin - emax) and occupancy:
:BAN00018:  18    0.375755    0.556576  1.00000000
:BAN00019:  19    0.468394    0.577212  1.00000000
:BAN00020:  20    0.468394    0.577212  1.00000000
:BAN00021:  21    0.537192    0.599757  1.00000000
:BAN00022:  22    0.537192    0.599757  1.00000000
:BAN00023:  23    0.573000    0.625608  1.00000000
:BAN00024:  24    0.573000    0.625608  1.00000000
:BAN00025:  25    0.797711    0.835868  0.94572604
:BAN00026:  26    0.797711    0.835868  0.94572604
:BAN00027:  27    0.829720    0.855390  0.05427396
:BAN00028:  28    0.829720    0.855390  0.05427396
:BAN00029:  29    0.837512    0.855390  0.00000000
:BAN00030:  30    0.837512    0.855390  0.00000000
:BAN00031:  31    0.862665    0.914693  0.00000000
:BAN00032:  32    0.862665    0.914693  0.00000000
:BAN00033:  33    0.888401    0.928728  0.00000000
        Energy to separate low and high energystates:    0.74771


:NLDA  : NUMBER OF ELECTRONS          =  26.000

:FLDA  : F E R M I - ENERGY           =   1.33136




:POS001: AT.NR.   1 POSITION = 0.00000 0.00000 0.00000  MULTIPLICITY =  1

       LMMAX  5
       LM=   0 0  4 0  4 4  6 0  6 4




:POS002: AT.NR.   2 POSITION = 0.00000 0.00000 0.00000  MULTIPLICITY =  2

       LMMAX  6
       LM=   0 0  4 0  4 4  6 0  6 4 -3 2
:FER DMFT Fermi Energy   0.79977
:EORB          0.076618943
:SUM SUM OF DMFT BAND ENERGIES         -2.655045040

:CHA001: TOTAL CHARGE INSIDE SPHERE   1 =     8.176058
:PCS001: PARTIAL CHARGES SPHERE =  1 S,P,D,F,      D-EG,D-T2G 
:QTL001: 1.7958 4.1671 0.2218 1.9888 0.0000 0.0000 0.0000 0.0492 0.1840 0.0000 0.0000 0.0000
        Q-s-low E-s-low   Q-p-low E-p-low   Q-d-low E-d-low   Q-f-low E-f-low
:EPL001:  1.7956 -2.3349    4.1656 -0.5491    0.2201  0.4194    0.2240  0.5370
        Q-s-hi  E-s-hi    Q-p-hi  E-p-hi    Q-d-hi  E-d-hi    Q-f-hi  E-f-hi 
:EPH001:  0.0002  0.8916    0.0015  0.8571    0.0017  0.8602    1.7648  0.8265

:CHA002: TOTAL CHARGE INSIDE SPHERE   2 =     5.133231
:PCS002: PARTIAL CHARGES SPHERE =  2 S,P,D,F,      D-EG,D-T2G 
:QTL002: 1.5758 3.5481 0.0080 0.0012 0.0000 0.0000 0.0000 0.0029 0.0087 0.0000 0.0000 0.0000
        Q-s-low E-s-low   Q-p-low E-p-low   Q-d-low E-d-low   Q-f-low E-f-low
:EPL002:  1.5743 -0.4843    3.5304  0.4993    0.0065 -0.0241    0.0010 -0.1709
        Q-s-hi  E-s-hi    Q-p-hi  E-p-hi    Q-d-hi  E-d-hi    Q-f-hi  E-f-hi 
:EPH002:  0.0015  0.8425    0.0176  0.8475    0.0015  0.8246    0.0002  0.8314

:CHA  : TOTAL CHARGE INSIDE UNIT CELL =      26.000000

:ESUM  : SUM OF EIGENVALUES =          -2.603760572


------- UO2_8.scfc --------

        1.ATOM      U  4+                21 CORE STATES
:1S 001: 1S               -8506.445990427 Ry
:2S 001: 2S               -1587.893084424 Ry
:2PP001: 2P*              -1531.139113045 Ry
:2P 001: 2P               -1249.943113708 Ry
:3S 001: 3S                -400.032653723 Ry
:3PP001: 3P*               -374.259457052 Ry
:3P 001: 3P                -309.476084061 Ry
:3DD001: 3D*               -268.663778039 Ry
:3D 001: 3D                -255.518499742 Ry
:4S 001: 4S                -101.101358417 Ry
:4PP001: 4P*                -89.507813283 Ry
:4P 001: 4P                 -72.597987379 Ry
:4DD001: 4D*                -54.133185528 Ry
:4D 001: 4D                 -51.024572454 Ry
:5S 001: 5S                 -21.693117804 Ry
:5PP001: 5P*                -17.186378851 Ry
:5P 001: 5P                 -13.156178965 Ry
:4FF001: 4F*                -26.738096159 Ry
:4F 001: 4F                 -25.928089664 Ry
:5DD001: 5D*                 -6.567066081 Ry
:5D 001: 5D                  -5.968879189 Ry

        2.ATOM      O  2-                 1 CORE STATES
:1S 002: 1S                 -36.088191965 Ry

------- UO2_8.scfm --------
:CINT001 Core Integral Atom   1   77.964471
:CINT002 Core Integral Atom   2    2.000000
     
       CHARGES OF NEW CHARGE DENSITY
:NTO   : INTERSTITIAL CHARGE =     7.557470
:NTO001: CHARGE SPHERE  1    =    86.140529
:NTO002: CHARGE SPHERE  2    =     7.133231

:NEC01: NUCLEAR AND ELECTRONIC CHARGE    108.00000   107.96446
     
       CHARGES OF OLD CHARGE DENSITY
:OTO   : INTERSTITIAL CHARGE =     7.597575
:OTO001: CHARGE SPHERE  1    =    86.161700
:OTO002: CHARGE SPHERE  2    =     7.120362
:DNEW  1   -0.0212
:DNEW  2    0.0129

:NEC02: NUCLEAR AND ELECTRONIC CHARGE    108.00000   108.00000
     
       CONVERGENCE TEST
:DTO001: DIFFERENCE IN SPHERE  1 =  0.0156441
:DTO002: DIFFERENCE IN SPHERE  2 =  0.0137011

:DIS  :  CHARGE DISTANCE       ( 0.0156441 for atom    1 spin 1)      0.0143488
:BIG check (qbig,qrms,qtot)    0.521D-02   0.102D-01   0.143D-01
 
******************************************************
* MULTISECANT MIXING VER6 RELEASE 6.0 OPTIONS        *
* Standard Mode with controls                        *
* Regularization       1.000E-06                     *
* Trust Region Control Active                        *
* Max Number of Memory Steps    8                    *
******************************************************
 
:PLANE:  INTERSTITIAL TOTAL      2.50815 DISTAN  2.011E-01 % 
:CHARG:  CLM CHARGE   /ATOM    345.90897 DISTAN  9.976E-03 % 
 
 Step History DMIX, Red, Pred, Trust, FRMS, FABS
  2  2.5000E-02  1.0000E+00  1.0000E+00  1.0000E+00
  3  6.2500E-02  8.0811E-01  1.0000E+00  1.0000E+00
  4  7.2912E-02  1.0000E+00  4.7634E-01  2.0322E+00
  
:NORMS:  Nuclear, Spectral, Froebius, Shanno-Pua   0.2858E+01  0.2856E+01  0.2854E+01  0.2872E+00
:INFO :  Number of Memory Steps    3 Skipping    0
:INFO :  SLambda=    2.8577412  Max    2.8577412

Eigenvalues, unscaled except for SY+YY
   #     SY Real        SY Imag          SS             YY         SY+YY Real      SY+YY Imag
   1   8.582888E-01   0.000000E+00   3.668715E-01   2.992590E+00   5.447402E+00   0.000000E+00
   2  -1.277520E-13   0.000000E+00   3.442678E-17   6.810004E-03   1.317183E-02   0.000000E+00
   3   3.007709E-03   0.000000E+00   1.375587E-03   5.997035E-04   7.880910E-04   0.000000E+00
 
:INFO :  Singular value   5.451E+00 Weight  1.0000E+00 Projections   5.203E-01  5.154E-02
:INFO :  Singular value   1.333E-02 Weight  1.0000E+00 Projections   2.533E-01 -1.004E+00
:INFO :  Singular value   7.781E-04 Weight  9.9999E-01 Projections  -8.388E-01  1.690E-01
 
:DIRM :  MEMORY 3/8 RESCALE  15.22 RED 0.730 PRED 0.476 NEXT 0.101
:INFO :  Blimit    1.647E+00  1.001E+00  5.627E-01  2.254E+00
:DIRP :  |MSR1|= 3.634E-02 |PRATT|= 7.680E-02 ANGLE=  39.8 DEGREES
:DIRQ :  |MSR1|= 2.371E-02 |PRATT|= 6.902E-02 ANGLE=  64.1 DEGREES
:DIR  :  |MSR1|= 4.339E-02 |PRATT|= 1.033E-01 ANGLE=  50.3 DEGREES
:MIX  :   MSE1   REGULARIZATION: 2.99E-06  GREED: 0.084  Newton 1.00  0.42                
     
       CHARGES OF MIXED CHARGE DENSITY
:CTO   : INTERSTITIAL CHARGE =     7.595346
:CTO001: CHARGE SPHERE  1    =    86.163523
:CTO002: CHARGE SPHERE  2    =     7.120566

:NEC03: NUCLEAR AND ELECTRONIC CHARGE    108.00000   108.00000

PW CHANGE     H    K    L       Current     Change     Residue
:PTO001:      0    0    0  8.28283446E-02  1.143E-05  2.951E-05
:PTO002:     -1   -1   -1  2.04809477E-01  8.556E-05 -6.437E-05
:PTO003:      0    0   -2  9.21237539E-04  2.633E-05 -2.918E-04
:PTO004:      0   -2   -2  2.86620461E-01  1.838E-04  5.239E-04
:PTO005:     -1   -1   -3  1.57466216E-01  3.213E-04  5.308E-04
:PTO006:     -2   -2   -2 -1.82196795E-02  1.908E-04  1.970E-04
:PTO007:      0    0   -4  4.45822376E-02 -1.644E-05  3.534E-05
:PTO008:     -1   -3   -3  3.49307164E-02  1.618E-04  3.270E-04
:PTO009:      0   -2   -4 -5.07241161E-02  1.856E-04  2.458E-04
:PTO010:     -2   -2   -4  4.98996272E-02  6.518E-05  2.344E-04
:PTO011:     -3   -3   -3 -3.91648160E-03  9.259E-05  2.038E-04
:PTO012:     -1   -1   -5 -3.13409101E-03 -4.312E-05 -6.956E-05

:ENE  : ********** TOTAL ENERGY IN Ry =       -56437.55159265


------- UO2_8.scf0 --------


            ---------
:ITE077: 77. ITERATION
            ---------

:NATO :    2 INDEPENDENT AND    3 TOTAL ATOMS IN UNITCELL
       SUBSTANCE: blebleble                                                   

       LATTICE                      = F   
:POT  : POTENTIAL OPTION    5
:LAT  : LATTICE CONSTANTS= 10.67636 10.67636 10.67636    1.571    1.571    1.571
:VOL  : UNIT CELL VOLUME =     304.23507
       MODE OF CALCULATION IS       = RELA
       NON-SPINPOLARIZED CALCULATION
:IFFT  : FFT-parameters:   90   90   90 Factor: 2.00
       ATOMNUMBER=  1 U  4+      VCOUL-ZERO = -0.57994E+00
       ATOMNUMBER=  2 O  2-      VCOUL-ZERO =  0.78426E+00
:FIT001: LUSE= 13 SIGMA OF V-XC FIT FOR ATOM  1  0.4556353E-04
:FIT001: LUSE= 13 SIGMA OF V-XC FIT FOR ATOM  1  0.4556353E-04
:FIT002: LUSE= 13 SIGMA OF V-XC FIT FOR ATOM  2  0.9288015E-04
:FIT002: LUSE= 13 SIGMA OF V-XC FIT FOR ATOM  2  0.9288015E-04
:DEN  : DENSITY INTEGRAL  =        -20891.45720648   (Ry)
       ELS_POTENTIAL_AT Z=0 and Z=0.5:  -3.31060  -3.31060
       ELS_POTENTIAL_AT Y=0 and Y=0.5:   0.00000   0.00000
:VZERO:v0,v0c,v0x  -4.00471  -3.31060  -0.69411 v5,v5c,v5x  -4.00471  -3.31060  -0.69411
:VZERY:v0,v0c,v0x  -0.83299   0.00000  -0.83299 v5,v5c,v5x  -0.83299   0.00000  -0.83299
:VZERX:v0,v0c,v0x  -0.83299   0.00000  -0.83299 v5,v5c,v5x  -0.83299   0.00000  -0.83299

------- UO2_8.scf1 --------

          ATOMIC SPHERE DEPENDENT PARAMETERS FOR ATOM  U  4+     
:e__0001: OVERALL ENERGY PARAMETER IS    0.6419
          OVERALL BASIS SET ON ATOM IS LAPW
:E0_0001: E( 0)=    0.6419
             APW+lo
:E0_0001: E( 0)=   -2.3323   E(BOTTOM)=   -3.679   E(TOP)=   -0.985  5  6   234
             LOCAL ORBITAL
:E1_0001: E( 1)=   -1.2800   E(BOTTOM)=   -1.945   E(TOP)= -200.000  4 -1   218
             APW+lo
:E1_0001: E( 1)=    1.0419
             LOCAL ORBITAL
:E3_0001: E( 3)=    0.8948   E(BOTTOM)=    0.106   E(TOP)=    1.683  1  2   173
             APW+lo
:E2_0001: E( 2)=    0.6666   E(BOTTOM)=    0.667   E(TOP)= -200.000  3 -1   114
             APW+lo

          ATOMIC SPHERE DEPENDENT PARAMETERS FOR ATOM  O  2-     
:e__0002: OVERALL ENERGY PARAMETER IS    0.6419
          OVERALL BASIS SET ON ATOM IS LAPW
:E0_0002: E( 0)=   -0.3532   E(BOTTOM)=   -1.717   E(TOP)=    1.011  1  2   234
             APW+lo
:E0_0002: E( 0)=    1.0419
             LOCAL ORBITAL
:E1_0002: E( 1)=    0.6419
             APW+lo

       K=   0.00000   0.00000   0.00000            1
:RKM  : MATRIX SIZE  779LOs:  30  RKM= 8.42  WEIGHT= 1.00  PGR:    
       EIGENVALUES ARE:
:EIG00001:      -2.4115294   -0.5626055   -0.5626055   -0.5626055   -0.5544023
:EIG00006:      -0.4624112    0.3729935    0.3729935    0.3729935    0.5803745
:EIG00011:       0.5803745    0.5803745    0.8671765    0.8671765    0.8671765
:EIG00016:       0.8970195    0.9245094    0.9245094    0.9245094    0.9987001
:EIG00021:       1.0467969    1.0467969    1.4861125    1.4861125    1.4861125
:EIG00026:       1.7224307    1.7224307    1.7224307    2.0637643    2.4171132
:EIG00031:       2.4171132    2.4420970    2.4420970    2.4420970    2.7564695
:EIG00036:       2.7564695    2.7564695    2.9435289    2.9435289    2.9435289
:EIG00041:       2.9967429    3.3648343    3.3648343    3.4573677    3.4573677
:EIG00046:       3.4573677    3.5410568    3.5410568    3.5464068    3.5464068
 
:EIG00051:       3.5464068    3.5844428    3.7725694    3.7725694    3.7725694
:EIG00056:       3.8326463    3.8967040    3.8967040    3.8967040    3.9133848
:EIG00061:       3.9133848    3.9133848    3.9738456    3.9738456    3.9738456
:EIG00066:       4.2741765    4.7827165    4.7827165    4.7827165    5.0279180
:EIG00071:       5.0279180    5.0390701    5.0390701    5.0390701    5.2301611
:EIG00076:       5.6126927    5.6126927    5.6299384    5.6299384    5.6299384
:EIG00081:       5.7757984    5.7757984    5.7757984    5.9270136    5.9270136
:EIG00086:       5.9270136    6.1507012    6.1507012    6.1507012    6.2201955
:EIG00091:       6.2753925    6.2753925    6.2941994    6.2941994    6.3408329
:EIG00096:       6.3408329    6.3408329    6.4809870    6.5531766    6.5531766
 
:EIG00101:       6.5531766    6.5905310    6.5905310    6.5905310    6.6904734
:EIG00106:       6.7270402    6.7270402    6.7270402    6.9282209    6.9585672
:EIG00111:       6.9585672    6.9585672    7.0064590    7.0064590    7.0180837
:EIG00116:       7.0180837    7.0180837    7.0587426    7.0587426    7.0587426
:EIG00121:       7.2834646    7.2834646    7.2834646    7.7454312    7.7454312
:EIG00126:       7.7454312    7.7645715    7.7645715    7.7645715    7.8950381
:EIG00131:       7.8950381    7.8950381    7.9028630    7.9709041    7.9709041
:EIG00136:       8.0926334    8.0926334    8.1843712    8.1843712    8.1843712
:EIG00141:       8.2686593    8.2686593    8.2686593
       ********************************************************

:KPT   :      NUMBER OF K-POINTS:   145

------- UO2_8.scfso --------
   0.0   0.0 angle (M,z), angle (M,x) deg
 
        SPIN-ORBIT EIGENVALUES:
     K=   0.00000   0.00000   0.00000            1
      MATRIX SIZE=  286   WEIGHT= 1.00
     EIGENVALUES ARE:
          -2.4115294   -2.4115294   -0.9702189   -0.9702189   -0.5544023
          -0.5544023   -0.4624143   -0.4624143   -0.3965594   -0.3965594
          -0.3965594   -0.3965594    0.3711934    0.3711934    0.3711934
           0.3711934    0.3757610    0.3757610    0.5760493    0.5760493
           0.5820480    0.5820480    0.5820480    0.5820480    0.8376098
           0.8376098    0.8569364    0.8569364    0.8569364    0.8569364
           0.9164530    0.9164530    0.9300188    0.9300188    0.9300188
           0.9300188    0.9442905    0.9442905    0.9987001    0.9987001

           1.0446247    1.0446247    1.0446247    1.0446247    1.4752935
           1.4752935    1.4752935    1.4752935    1.5082121    1.5082121
           1.6616280    1.6616280    1.7497595    1.7497595    1.7497595
           1.7497595    2.0637643    2.0637643    2.4090491    2.4090491
           2.4090491    2.4090491    2.4455655    2.4455655    2.4455655
           2.4455655    2.4512742    2.4512742    2.5995330    2.5995330
           2.8436781    2.8436781    2.8436782    2.8436782    2.9398924
           2.9398924    2.9450548    2.9450548    2.9450548    2.9450548

           2.9979217    2.9979217    3.3604426    3.3604426    3.3604426
           3.3604426    3.4541913    3.4541913    3.4541913    3.4541913
           3.4742720    3.4742720    3.5410568    3.5410568    3.5410568
           3.5410568    3.5463924    3.5463924    3.5464140    3.5464140
           3.5464140    3.5464140    3.5844428    3.5844428    3.7725778
           3.7725778    3.7725778    3.7725778    3.7731092    3.7731092
           3.8326463    3.8326463    3.8967078    3.8967078    3.8967096
           3.8967096    3.8967096    3.8967096    3.9066476    3.9066476

           3.9176752    3.9176752    3.9176752    3.9176752    3.9727161
           3.9727161    3.9748918    3.9748918    3.9748918    3.9748918
           4.2743432    4.2743432
       ********************************************************

------- UO2_8.scf2 --------
:GMA  : POTENTIAL AND CHARGE CUT-OFF  12.00 Ry**.5
         Bandranges (emin - emax) and occupancy:
:BAN00018:  18    0.375761    0.556725  1.00000000
:BAN00019:  19    0.468457    0.577171  1.00000000
:BAN00020:  20    0.468457    0.577171  1.00000000
:BAN00021:  21    0.537266    0.599809  1.00000000
:BAN00022:  22    0.537266    0.599809  1.00000000
:BAN00023:  23    0.573135    0.625664  1.00000000
:BAN00024:  24    0.573135    0.625664  1.00000000
:BAN00025:  25    0.799124    0.837610  0.94451801
:BAN00026:  26    0.799124    0.837610  0.94451801
:BAN00027:  27    0.831195    0.856936  0.05548199
:BAN00028:  28    0.831195    0.856936  0.05548199
:BAN00029:  29    0.838963    0.856936  0.00000000
:BAN00030:  30    0.838963    0.856936  0.00000000
:BAN00031:  31    0.864109    0.916507  0.00000000
:BAN00032:  32    0.864109    0.916507  0.00000000
:BAN00033:  33    0.889838    0.930019  0.00000000
        Energy to separate low and high energystates:    0.74912


:NLDA  : NUMBER OF ELECTRONS          =  26.000

:FLDA  : F E R M I - ENERGY           =   1.33285




:POS001: AT.NR.   1 POSITION = 0.00000 0.00000 0.00000  MULTIPLICITY =  1

       LMMAX  5
       LM=   0 0  4 0  4 4  6 0  6 4




:POS002: AT.NR.   2 POSITION = 0.00000 0.00000 0.00000  MULTIPLICITY =  2

       LMMAX  6
       LM=   0 0  4 0  4 4  6 0  6 4 -3 2
:FER DMFT Fermi Energy   0.80147
:EORB          0.075147195
:SUM SUM OF DMFT BAND ENERGIES         -2.644276909

:CHA001: TOTAL CHARGE INSIDE SPHERE   1 =     8.168902
:PCS001: PARTIAL CHARGES SPHERE =  1 S,P,D,F,      D-EG,D-T2G 
:QTL001: 1.7956 4.1664 0.2216 1.9827 0.0000 0.0000 0.0000 0.0492 0.1838 0.0000 0.0000 0.0000
        Q-s-low E-s-low   Q-p-low E-p-low   Q-d-low E-d-low   Q-f-low E-f-low
:EPL001:  1.7954 -2.3337    4.1649 -0.5483    0.2199  0.4195    0.2196  0.5362
        Q-s-hi  E-s-hi    Q-p-hi  E-p-hi    Q-d-hi  E-d-hi    Q-f-hi  E-f-hi 
:EPH001:  0.0002  0.8918    0.0015  0.8583    0.0017  0.8611    1.7631  0.8280

:CHA002: TOTAL CHARGE INSIDE SPHERE   2 =     5.136694
:PCS002: PARTIAL CHARGES SPHERE =  2 S,P,D,F,      D-EG,D-T2G 
:QTL002: 1.5759 3.5514 0.0080 0.0012 0.0000 0.0000 0.0000 0.0029 0.0087 0.0000 0.0000 0.0000
        Q-s-low E-s-low   Q-p-low E-p-low   Q-d-low E-d-low   Q-f-low E-f-low
:EPL002:  1.5744 -0.4843    3.5341  0.4994    0.0065 -0.0242    0.0010 -0.1711
        Q-s-hi  E-s-hi    Q-p-hi  E-p-hi    Q-d-hi  E-d-hi    Q-f-hi  E-f-hi 
:EPH002:  0.0015  0.8438    0.0173  0.8488    0.0015  0.8260    0.0002  0.8330

:CHA  : TOTAL CHARGE INSIDE UNIT CELL =      26.000000

:ESUM  : SUM OF EIGENVALUES =          -2.593666240


------- UO2_8.scfc --------

        1.ATOM      U  4+                21 CORE STATES
:1S 001: 1S               -8506.438556499 Ry
:2S 001: 2S               -1587.885904507 Ry
:2PP001: 2P*              -1531.131869951 Ry
:2P 001: 2P               -1249.935930786 Ry
:3S 001: 3S                -400.026014081 Ry
:3PP001: 3P*               -374.252763394 Ry
:3P 001: 3P                -309.469503075 Ry
:3DD001: 3D*               -268.657065447 Ry
:3D 001: 3D                -255.511820037 Ry
:4S 001: 4S                -101.095758991 Ry
:4PP001: 4P*                -89.502201962 Ry
:4P 001: 4P                 -72.592574095 Ry
:4DD001: 4D*                -54.127748662 Ry
:4D 001: 4D                 -51.019193558 Ry
:5S 001: 5S                 -21.689185520 Ry
:5PP001: 5P*                -17.182568162 Ry
:5P 001: 5P                 -13.152726082 Ry
:4FF001: 4F*                -26.732648734 Ry
:4F 001: 4F                 -25.922671351 Ry
:5DD001: 5D*                 -6.564002540 Ry
:5D 001: 5D                  -5.965931959 Ry

        2.ATOM      O  2-                 1 CORE STATES
:1S 002: 1S                 -36.089659721 Ry

------- UO2_8.scfm --------
:CINT001 Core Integral Atom   1   77.964421
:CINT002 Core Integral Atom   2    2.000000
     
       CHARGES OF NEW CHARGE DENSITY
:NTO   : INTERSTITIAL CHARGE =     7.557722
:NTO001: CHARGE SPHERE  1    =    86.133322
:NTO002: CHARGE SPHERE  2    =     7.136694

:NEC01: NUCLEAR AND ELECTRONIC CHARGE    108.00000   107.96443
     
       CHARGES OF OLD CHARGE DENSITY
:OTO   : INTERSTITIAL CHARGE =     7.595346
:OTO001: CHARGE SPHERE  1    =    86.163523
:OTO002: CHARGE SPHERE  2    =     7.120566
:DNEW  1   -0.0302
:DNEW  2    0.0161

:NEC02: NUCLEAR AND ELECTRONIC CHARGE    108.00000   108.00000
     
       CONVERGENCE TEST
:DTO001: DIFFERENCE IN SPHERE  1 =  0.0269329
:DTO002: DIFFERENCE IN SPHERE  2 =  0.0190594

:DIS  :  CHARGE DISTANCE       ( 0.0269329 for atom    1 spin 1)      0.0216839
:BIG check (qbig,qrms,qtot)    0.898D-02   0.156D-01   0.217D-01
 
******************************************************
* MULTISECANT MIXING VER6 RELEASE 6.0 OPTIONS        *
* Standard Mode with controls                        *
* Regularization       1.000E-06                     *
* Trust Region Control Active                        *
* Max Number of Memory Steps    8                    *
******************************************************
 
:PLANE:  INTERSTITIAL TOTAL      2.50923 DISTAN  1.697E-01 % 
:CHARG:  CLM CHARGE   /ATOM    345.91026 DISTAN  1.158E-02 % 
 
 Step History DMIX, Red, Pred, Trust, FRMS, FABS
  2  2.5000E-02  1.0000E+00  1.0000E+00  1.0000E+00
  3  6.2500E-02  8.0811E-01  1.0000E+00  1.0000E+00
  4  7.2912E-02  7.2981E-01  4.7634E-01  2.0322E+00
  5  8.4403E-02  1.0000E+00  1.0104E-01  2.2535E+00
  
:NORMS:  Nuclear, Spectral, Froebius, Shanno-Pua   0.1578E+01  0.1185E+01  0.1326E+01  0.7316E+00
:INFO :  Number of Memory Steps    4 Skipping    0
:INFO :  SLambda=    1.5779641  Max    1.5779641

Eigenvalues, unscaled except for SY+YY
   #     SY Real        SY Imag          SS             YY         SY+YY Real      SY+YY Imag
   1   2.405713E+00   0.000000E+00   2.202914E+00   3.093543E+00   6.867515E+00   0.000000E+00
   2   2.589015E-01   0.000000E+00   7.164853E-02   9.033727E-01   1.334558E+00   0.000000E+00
   3  -1.381978E-06   0.000000E+00   4.269587E-16   3.084188E-03   2.591293E-03   0.000000E+00
   4   9.417771E-14   0.000000E+00   4.050965E-07   3.467894E-07   6.983408E-07   0.000000E+00
 
:INFO :  Increased using Multisecant Shanno-Phua
:INFO :  Singular value   6.876E+00 Weight  1.0000E+00 Projections   8.436E-01  2.564E-02
:INFO :  Singular value   1.333E+00 Weight  1.0000E+00 Projections  -9.863E-01  8.012E-02
:INFO :  Singular value   2.590E-03 Weight  1.0000E+00 Projections   5.749E-02  9.905E-01
:INFO :  Singular value   6.983E-07 Weight  4.8488E-02 Projections   7.188E-02 -8.395E-01
 
:DIRM :  MEMORY 4/8 RESCALE  15.88 RED 0.992 PRED 0.101 NEXT 0.093
:INFO :  Blimit    2.751E+00  1.332E+00  9.312E-01  4.960E+00
:DIRP :  |MSR1|= 8.804E-04 |PRATT|= 6.762E-02 ANGLE=  70.2 DEGREES
:DIRQ :  |MSR1|= 1.088E-03 |PRATT|= 8.014E-02 ANGLE=  76.3 DEGREES
:DIR  :  |MSR1|= 1.399E-03 |PRATT|= 1.049E-01 ANGLE=  73.8 DEGREES
:MIX  :   MSE1   REGULARIZATION: 3.09E-06  GREED: 0.140  Newton 1.00  0.01                
     
       CHARGES OF MIXED CHARGE DENSITY
:CTO   : INTERSTITIAL CHARGE =     7.595362
:CTO001: CHARGE SPHERE  1    =    86.163470
:CTO002: CHARGE SPHERE  2    =     7.120584

:NEC03: NUCLEAR AND ELECTRONIC CHARGE    108.00000   108.00000

PW CHANGE     H    K    L       Current     Change     Residue
:PTO001:      0    0    0  8.28282782E-02 -6.640E-08  1.462E-05
:PTO002:     -1   -1   -1  2.04807387E-01 -2.090E-06 -2.528E-04
:PTO003:      0    0   -2  9.18578788E-04 -2.659E-06 -4.387E-04
:PTO004:      0   -2   -2  2.86619508E-01 -9.525E-07  3.243E-04
:PTO005:     -1   -1   -3  1.57466634E-01  4.186E-07  8.915E-05
:PTO006:     -2   -2   -2 -1.82157169E-02  3.963E-06 -6.896E-05
:PTO007:      0    0   -4  4.45792203E-02 -3.017E-06  5.180E-05
:PTO008:     -1   -3   -3  3.49273742E-02 -3.342E-06  9.123E-05
:PTO009:      0   -2   -4 -5.07232802E-02  8.359E-07 -2.563E-05
:PTO010:     -2   -2   -4  4.98963729E-02 -3.254E-06  1.540E-04
:PTO011:     -3   -3   -3 -3.91408746E-03  2.394E-06  1.080E-04
:PTO012:     -1   -1   -5 -3.13816736E-03 -4.076E-06 -4.238E-05

:ENE  : ********** TOTAL ENERGY IN Ry =       -56437.55176050


------- UO2_8.scf0 --------


            ---------
:ITE078: 78. ITERATION
            ---------

:NATO :    2 INDEPENDENT AND    3 TOTAL ATOMS IN UNITCELL
       SUBSTANCE: blebleble                                                   

       LATTICE                      = F   
:POT  : POTENTIAL OPTION    5
:LAT  : LATTICE CONSTANTS= 10.67636 10.67636 10.67636    1.571    1.571    1.571
:VOL  : UNIT CELL VOLUME =     304.23507
       MODE OF CALCULATION IS       = RELA
       NON-SPINPOLARIZED CALCULATION
:IFFT  : FFT-parameters:   90   90   90 Factor: 2.00
       ATOMNUMBER=  1 U  4+      VCOUL-ZERO = -0.57997E+00
       ATOMNUMBER=  2 O  2-      VCOUL-ZERO =  0.78429E+00
:FIT001: LUSE= 13 SIGMA OF V-XC FIT FOR ATOM  1  0.4553952E-04
:FIT001: LUSE= 13 SIGMA OF V-XC FIT FOR ATOM  1  0.4553952E-04
:FIT002: LUSE= 13 SIGMA OF V-XC FIT FOR ATOM  2  0.9280275E-04
:FIT002: LUSE= 13 SIGMA OF V-XC FIT FOR ATOM  2  0.9280275E-04
:DEN  : DENSITY INTEGRAL  =        -20891.42390179   (Ry)
       ELS_POTENTIAL_AT Z=0 and Z=0.5:  -3.31068  -3.31068
       ELS_POTENTIAL_AT Y=0 and Y=0.5:   0.00000   0.00000
:VZERO:v0,v0c,v0x  -4.00475  -3.31068  -0.69408 v5,v5c,v5x  -4.00475  -3.31068  -0.69408
:VZERY:v0,v0c,v0x  -0.83299   0.00000  -0.83299 v5,v5c,v5x  -0.83299   0.00000  -0.83299
:VZERX:v0,v0c,v0x  -0.83299   0.00000  -0.83299 v5,v5c,v5x  -0.83299   0.00000  -0.83299

------- UO2_8.scf1 --------

          ATOMIC SPHERE DEPENDENT PARAMETERS FOR ATOM  U  4+     
:e__0001: OVERALL ENERGY PARAMETER IS    0.6419
          OVERALL BASIS SET ON ATOM IS LAPW
:E0_0001: E( 0)=    0.6419
             APW+lo
:E0_0001: E( 0)=   -2.3324   E(BOTTOM)=   -3.679   E(TOP)=   -0.986  5  6   232
             LOCAL ORBITAL
:E1_0001: E( 1)=   -1.2800   E(BOTTOM)=   -1.945   E(TOP)= -200.000  4 -1   221
             APW+lo
:E1_0001: E( 1)=    1.0419
             LOCAL ORBITAL
:E3_0001: E( 3)=    0.8947   E(BOTTOM)=    0.106   E(TOP)=    1.683  1  2   182
             APW+lo
:E2_0001: E( 2)=    0.6665   E(BOTTOM)=    0.667   E(TOP)= -200.000  3 -1   112
             APW+lo

          ATOMIC SPHERE DEPENDENT PARAMETERS FOR ATOM  O  2-     
:e__0002: OVERALL ENERGY PARAMETER IS    0.6419
          OVERALL BASIS SET ON ATOM IS LAPW
:E0_0002: E( 0)=   -0.3531   E(BOTTOM)=   -1.717   E(TOP)=    1.011  1  2   234
             APW+lo
:E0_0002: E( 0)=    1.0419
             LOCAL ORBITAL
:E1_0002: E( 1)=    0.6419
             APW+lo

       K=   0.00000   0.00000   0.00000            1
:RKM  : MATRIX SIZE  779LOs:  30  RKM= 8.42  WEIGHT= 1.00  PGR:    
       EIGENVALUES ARE:
:EIG00001:      -2.4116069   -0.5626604   -0.5626604   -0.5626604   -0.5543852
:EIG00006:      -0.4623910    0.3730039    0.3730039    0.3730039    0.5803737
:EIG00011:       0.5803737    0.5803737    0.8670846    0.8670846    0.8670846
:EIG00016:       0.8969364    0.9244313    0.9244313    0.9244313    0.9987025
:EIG00021:       1.0467752    1.0467752    1.4860975    1.4860975    1.4860975
:EIG00026:       1.7224229    1.7224229    1.7224229    2.0637552    2.4171014
:EIG00031:       2.4171014    2.4420964    2.4420964    2.4420964    2.7564536
:EIG00036:       2.7564536    2.7564536    2.9435109    2.9435109    2.9435109
:EIG00041:       2.9967364    3.3648231    3.3648231    3.4573612    3.4573612
:EIG00046:       3.4573612    3.5410712    3.5410712    3.5463998    3.5463998
 
:EIG00051:       3.5463998    3.5844283    3.7725731    3.7725731    3.7725731
:EIG00056:       3.8326372    3.8967052    3.8967052    3.8967052    3.9133690
:EIG00061:       3.9133690    3.9133690    3.9738394    3.9738394    3.9738394
:EIG00066:       4.2741684    4.7827231    4.7827231    4.7827231    5.0279108
:EIG00071:       5.0279108    5.0390733    5.0390733    5.0390733    5.2301538
:EIG00076:       5.6126716    5.6126716    5.6299203    5.6299203    5.6299203
:EIG00081:       5.7757922    5.7757922    5.7757922    5.9269915    5.9269915
:EIG00086:       5.9269915    6.1507014    6.1507014    6.1507014    6.2201898
:EIG00091:       6.2753956    6.2753956    6.2941961    6.2941961    6.3408251
:EIG00096:       6.3408251    6.3408251    6.4809860    6.5531810    6.5531810
 
:EIG00101:       6.5531810    6.5905194    6.5905194    6.5905194    6.6904653
:EIG00106:       6.7270449    6.7270449    6.7270449    6.9282204    6.9585641
:EIG00111:       6.9585641    6.9585641    7.0064682    7.0064682    7.0180948
:EIG00116:       7.0180948    7.0180948    7.0587339    7.0587339    7.0587339
:EIG00121:       7.2834492    7.2834492    7.2834492    7.7454292    7.7454292
:EIG00126:       7.7454292    7.7645632    7.7645632    7.7645632    7.8950342
:EIG00131:       7.8950342    7.8950342    7.9028417    7.9709003    7.9709003
:EIG00136:       8.0926339    8.0926339    8.1843815    8.1843815    8.1843815
:EIG00141:       8.2686585    8.2686585    8.2686585
       ********************************************************

:KPT   :      NUMBER OF K-POINTS:   145

------- UO2_8.scfso --------
   0.0   0.0 angle (M,z), angle (M,x) deg
 
        SPIN-ORBIT EIGENVALUES:
     K=   0.00000   0.00000   0.00000            1
      MATRIX SIZE=  286   WEIGHT= 1.00
     EIGENVALUES ARE:
          -2.4116069   -2.4116069   -0.9702819   -0.9702819   -0.5543852
          -0.5543852   -0.4623941   -0.4623941   -0.3966104   -0.3966104
          -0.3966103   -0.3966103    0.3712036    0.3712036    0.3712036
           0.3712036    0.3757718    0.3757718    0.5760523    0.5760523
           0.5820442    0.5820442    0.5820442    0.5820442    0.8375186
           0.8375186    0.8568484    0.8568484    0.8568484    0.8568484
           0.9163688    0.9163688    0.9299386    0.9299386    0.9299386
           0.9299386    0.9442113    0.9442113    0.9987025    0.9987025

           1.0446030    1.0446030    1.0446030    1.0446030    1.4752783
           1.4752783    1.4752783    1.4752783    1.5081978    1.5081978
           1.6616185    1.6616185    1.7497523    1.7497523    1.7497523
           1.7497523    2.0637552    2.0637552    2.4090399    2.4090399
           2.4090399    2.4090399    2.4455624    2.4455624    2.4455624
           2.4455624    2.4512734    2.4512734    2.5995189    2.5995189
           2.8436615    2.8436615    2.8436615    2.8436615    2.9398747
           2.9398747    2.9450368    2.9450368    2.9450368    2.9450368

           2.9979150    2.9979150    3.3604319    3.3604319    3.3604319
           3.3604319    3.4541845    3.4541845    3.4541845    3.4541845
           3.4742652    3.4742652    3.5410712    3.5410712    3.5410712
           3.5410712    3.5463853    3.5463853    3.5464070    3.5464070
           3.5464070    3.5464070    3.5844283    3.5844283    3.7725818
           3.7725818    3.7725818    3.7725818    3.7731125    3.7731125
           3.8326372    3.8326372    3.8967090    3.8967090    3.8967109
           3.8967109    3.8967109    3.8967109    3.9066319    3.9066319

           3.9176595    3.9176595    3.9176595    3.9176595    3.9727098
           3.9727098    3.9748853    3.9748853    3.9748853    3.9748853
           4.2743351    4.2743351
       ********************************************************

------- UO2_8.scf2 --------
:GMA  : POTENTIAL AND CHARGE CUT-OFF  12.00 Ry**.5
         Bandranges (emin - emax) and occupancy:
:BAN00018:  18    0.375772    0.556724  1.00000000
:BAN00019:  19    0.468465    0.577186  1.00000000
:BAN00020:  20    0.468465    0.577186  1.00000000
[...]
 39  9.9544E-02  6.2652E-01  4.4738E-02  2.9884E+00
 40  1.0811E-01  1.0000E+00  1.0371E-01  1.4415E+00
  
:NORMS:  Nuclear, Spectral, Froebius, Shanno-Pua   0.1321E+01  0.1388E+01  0.1359E+01  0.2507E+00
:INFO :  Number of Memory Steps    8 Skipping   31
:INFO :  SLambda=    0.3469687  Max    1.3878082

Eigenvalues, unscaled except for SY+YY
   #     SY Real        SY Imag          SS             YY         SY+YY Real      SY+YY Imag
   1   1.754459E+00   0.000000E+00   3.400567E+00   6.549532E+00   7.079555E+00   0.000000E+00
   2   6.458457E-01   0.000000E+00   6.714300E-01   1.050284E+00   1.392156E+00   0.000000E+00
   3   2.593080E-01   0.000000E+00   1.317679E-01   2.525700E-01   3.077048E-01   0.000000E+00
   4   8.256955E-02   0.000000E+00   8.803106E-02   9.683596E-02   1.222473E-01   0.000000E+00
   5   3.333525E-02   0.000000E+00   3.887727E-02   3.759416E-02   5.047745E-02   0.000000E+00
   6   4.875226E-03   0.000000E+00   2.138303E-03   1.296392E-02   1.241740E-02   0.000000E+00
   7   1.278689E-04   0.000000E+00   1.234318E-06   2.018303E-04   1.980944E-04   0.000000E+00
   8   6.793502E-06   0.000000E+00   5.784970E-05   1.802214E-05  -8.999981E-11   0.000000E+00
 
:INFO :  Singular value   7.104E+00 Weight  1.0000E+00 Projections  -2.967E-04 -1.939E-04
:INFO :  Singular value   1.389E+00 Weight  1.0000E+00 Projections   6.039E-04  9.189E-06
:INFO :  Singular value   3.085E-01 Weight  1.0000E+00 Projections  -4.783E-04  9.627E-05
:INFO :  Singular value   1.225E-01 Weight  1.0000E+00 Projections   2.236E-03  2.653E-05
:INFO :  Singular value   5.066E-02 Weight  1.0000E+00 Projections  -1.017E-03  4.175E-05
:INFO :  Singular value   1.238E-02 Weight  1.0000E+00 Projections   3.448E-04 -5.993E-06
:INFO :  Singular value   2.030E-04 Weight  9.9896E-01 Projections  -3.988E-04  2.636E-03
:INFO :  Singular value   8.732E-11 Weight  0.0000E+00 Projections  -6.180E-05  0.000E+00
 
:DIRM :  MEMORY 8/8 RESCALE  19.71 RED 0.159 PRED 0.104 NEXT 0.536
:INFO :  Blimit    2.048E+00  5.000E-01  8.621E-01  1.724E+00
:DIRP :  |MSR1|= 3.867E-04 |PRATT|= 3.924E-04 ANGLE=  60.8 DEGREES
:DIRQ :  |MSR1|= 1.888E-04 |PRATT|= 4.029E-04 ANGLE=  25.5 DEGREES
:DIR  :  |MSR1|= 4.304E-04 |PRATT|= 5.625E-04 ANGLE=  53.9 DEGREES
:MIX  :   MSD1   REGULARIZATION: 6.55E-06  GREED: 0.129  Newton 1.00  0.77                
     
       CHARGES OF MIXED CHARGE DENSITY
:CTO   : INTERSTITIAL CHARGE =     7.613760
:CTO001: CHARGE SPHERE  1    =    86.125143
:CTO002: CHARGE SPHERE  2    =     7.130548

:NEC03: NUCLEAR AND ELECTRONIC CHARGE    108.00000   108.00000

PW CHANGE     H    K    L       Current     Change     Residue
:PTO001:      0    0    0  8.30098380E-02 -3.480E-07 -2.843E-07
:PTO002:     -1   -1   -1  2.05244853E-01 -6.715E-07  1.109E-06
:PTO003:      0    0   -2  1.06743293E-03 -7.985E-08  1.816E-06
:PTO004:      0   -2   -2  2.87595098E-01 -1.648E-06 -1.063E-06
:PTO005:     -1   -1   -3  1.59089706E-01 -2.556E-06 -1.153E-06
:PTO006:     -2   -2   -2 -1.75235939E-02 -1.023E-06 -4.357E-07
:PTO007:      0    0   -4  4.47063659E-02 -2.306E-07 -5.334E-08
:PTO008:     -1   -3   -3  3.60303790E-02 -1.869E-06 -6.776E-07
:PTO009:      0   -2   -4 -4.96792901E-02 -1.601E-06 -1.081E-06
:PTO010:     -2   -2   -4  5.03680698E-02 -8.505E-07 -1.578E-07
:PTO011:     -3   -3   -3 -3.62953219E-03 -4.918E-07 -4.858E-07
:PTO012:     -1   -1   -5 -3.03955992E-03 -7.634E-08 -4.477E-08

:ENE  : ********** TOTAL ENERGY IN Ry =       -56437.55451441


------- UO2_8.scf0 --------


            ---------
:ITE113:113. ITERATION
            ---------

:NATO :    2 INDEPENDENT AND    3 TOTAL ATOMS IN UNITCELL
       SUBSTANCE: blebleble                                                   

       LATTICE                      = F   
:POT  : POTENTIAL OPTION    5
:LAT  : LATTICE CONSTANTS= 10.67636 10.67636 10.67636    1.571    1.571    1.571
:VOL  : UNIT CELL VOLUME =     304.23507
       MODE OF CALCULATION IS       = RELA
       NON-SPINPOLARIZED CALCULATION
:IFFT  : FFT-parameters:   90   90   90 Factor: 2.00
       ATOMNUMBER=  1 U  4+      VCOUL-ZERO = -0.59277E+00
       ATOMNUMBER=  2 O  2-      VCOUL-ZERO =  0.79286E+00
:FIT001: LUSE= 13 SIGMA OF V-XC FIT FOR ATOM  1  0.4666992E-04
:FIT001: LUSE= 13 SIGMA OF V-XC FIT FOR ATOM  1  0.4666992E-04
:FIT002: LUSE= 13 SIGMA OF V-XC FIT FOR ATOM  2  0.9074176E-04
:FIT002: LUSE= 13 SIGMA OF V-XC FIT FOR ATOM  2  0.9074176E-04
:DEN  : DENSITY INTEGRAL  =        -20888.53884982   (Ry)
       ELS_POTENTIAL_AT Z=0 and Z=0.5:  -3.33433  -3.33433
       ELS_POTENTIAL_AT Y=0 and Y=0.5:   0.00000   0.00000
:VZERO:v0,v0c,v0x  -4.02873  -3.33433  -0.69440 v5,v5c,v5x  -4.02873  -3.33433  -0.69440
:VZERY:v0,v0c,v0x  -0.83384   0.00000  -0.83384 v5,v5c,v5x  -0.83384   0.00000  -0.83384
:VZERX:v0,v0c,v0x  -0.83384   0.00000  -0.83384 v5,v5c,v5x  -0.83384   0.00000  -0.83384

------- UO2_8.scf1 --------

          ATOMIC SPHERE DEPENDENT PARAMETERS FOR ATOM  U  4+     
:e__0001: OVERALL ENERGY PARAMETER IS    0.6419
          OVERALL BASIS SET ON ATOM IS LAPW
:E0_0001: E( 0)=    0.6419
             APW+lo
:E0_0001: E( 0)=   -2.3576   E(BOTTOM)=   -3.701   E(TOP)=   -1.014  5  6   236
             LOCAL ORBITAL
:E1_0001: E( 1)=   -1.2800   E(BOTTOM)=   -1.966   E(TOP)= -200.000  4 -1   219
             APW+lo
:E1_0001: E( 1)=    1.0419
             LOCAL ORBITAL
:E3_0001: E( 3)=    0.8664   E(BOTTOM)=    0.081   E(TOP)=    1.652  1  2   182
             APW+lo
:E2_0001: E( 2)=    0.6461   E(BOTTOM)=    0.646   E(TOP)= -200.000  3 -1   110
             APW+lo

          ATOMIC SPHERE DEPENDENT PARAMETERS FOR ATOM  O  2-     
:e__0002: OVERALL ENERGY PARAMETER IS    0.6419
          OVERALL BASIS SET ON ATOM IS LAPW
:E0_0002: E( 0)=   -0.3411   E(BOTTOM)=   -1.706   E(TOP)=    1.024  1  2   232
             APW+lo
:E0_0002: E( 0)=    1.0419
             LOCAL ORBITAL
:E1_0002: E( 1)=    0.6419
             APW+lo

       K=   0.00000   0.00000   0.00000            1
:RKM  : MATRIX SIZE  779LOs:  30  RKM= 8.42  WEIGHT= 1.00  PGR:    
       EIGENVALUES ARE:
:EIG00001:      -2.4342036   -0.5792281   -0.5792281   -0.5792281   -0.5453872
:EIG00006:      -0.4520748    0.3787928    0.3787928    0.3787928    0.5835638
:EIG00011:       0.5835638    0.5835638    0.8421501    0.8421501    0.8421501
:EIG00016:       0.8725450    0.9062989    0.9062989    0.9062989    1.0010876
:EIG00021:       1.0406859    1.0406859    1.4838637    1.4838637    1.4838637
:EIG00026:       1.7216025    1.7216025    1.7216025    2.0632789    2.4147967
:EIG00031:       2.4147967    2.4431621    2.4431621    2.4431621    2.7537568
:EIG00036:       2.7537568    2.7537568    2.9397619    2.9397619    2.9397619
:EIG00041:       2.9975708    3.3607122    3.3607122    3.4566800    3.4566800
:EIG00046:       3.4566800    3.5436217    3.5436217    3.5436217    3.5463912
 
:EIG00051:       3.5463912    3.5817029    3.7739462    3.7739462    3.7739462
:EIG00056:       3.8303108    3.8974060    3.8974060    3.8974060    3.9114495
:EIG00061:       3.9114495    3.9114495    3.9730859    3.9730859    3.9730859
:EIG00066:       4.2736235    4.7864333    4.7864333    4.7864333    5.0251276
:EIG00071:       5.0251276    5.0413603    5.0413603    5.0413603    5.2289589
:EIG00076:       5.6070238    5.6070238    5.6235543    5.6235543    5.6235543
:EIG00081:       5.7747271    5.7747271    5.7747271    5.9197541    5.9197541
:EIG00086:       5.9197541    6.1525017    6.1525017    6.1525017    6.2199522
:EIG00091:       6.2764683    6.2764683    6.2942950    6.2942950    6.3387291
:EIG00096:       6.3387291    6.3387291    6.4831957    6.5539092    6.5539092
 
:EIG00101:       6.5539092    6.5870514    6.5870514    6.5870514    6.6887468
:EIG00106:       6.7296043    6.7296043    6.7296043    6.9279088    6.9586604
:EIG00111:       6.9586604    6.9586604    7.0087258    7.0087258    7.0213101
:EIG00116:       7.0213101    7.0213101    7.0579127    7.0579127    7.0579127
:EIG00121:       7.2791243    7.2791243    7.2791243    7.7451333    7.7451333
:EIG00126:       7.7451333    7.7643268    7.7643268    7.7643268    7.8942683
:EIG00131:       7.8942683    7.8942683    7.8974699    7.9694903    7.9694903
:EIG00136:       8.0928265    8.0928265    8.1891860    8.1891860    8.1891860
:EIG00141:       8.2681384    8.2681384    8.2681384
       ********************************************************

:KPT   :      NUMBER OF K-POINTS:   145

------- UO2_8.scfso --------
   0.0   0.0 angle (M,z), angle (M,x) deg
 
        SPIN-ORBIT EIGENVALUES:
     K=   0.00000   0.00000   0.00000            1
      MATRIX SIZE=  286   WEIGHT= 1.00
     EIGENVALUES ARE:
          -2.4342036   -2.4342036   -0.9892341   -0.9892341   -0.5453872
          -0.5453872   -0.4520783   -0.4520783   -0.4119988   -0.4119988
          -0.4119988   -0.4119988    0.3768886    0.3768886    0.3768886
           0.3768886    0.3817212    0.3817212    0.5804852    0.5804852
           0.5842480    0.5842480    0.5842480    0.5842480    0.8124587
           0.8124587    0.8337582    0.8337582    0.8337582    0.8337582
           0.8920346    0.8920346    0.9106723    0.9106723    0.9106723
           0.9106723    0.9254151    0.9254151    1.0010876    1.0010876

           1.0384971    1.0384971    1.0384971    1.0384971    1.4729409
           1.4729409    1.4729409    1.4729409    1.5062103    1.5062103
           1.6601594    1.6601594    1.7492071    1.7492071    1.7492071
           1.7492071    2.0632789    2.0632789    2.4075078    2.4075078
           2.4075078    2.4075078    2.4459176    2.4459176    2.4459176
           2.4459176    2.4522498    2.4522498    2.5974237    2.5974237
           2.8407092    2.8407092    2.8407093    2.8407093    2.9362307
           2.9362307    2.9412791    2.9412791    2.9412791    2.9412791

           2.9986583    2.9986583    3.3565485    3.3565485    3.3565485
           3.3565485    3.4533293    3.4533293    3.4533293    3.4533293
           3.4734834    3.4734834    3.5436069    3.5436069    3.5436290
           3.5436290    3.5436290    3.5436290    3.5463912    3.5463912
           3.5463912    3.5463912    3.5817029    3.5817029    3.7740272
           3.7740272    3.7740272    3.7740272    3.7744052    3.7744052
           3.8303108    3.8303108    3.8973974    3.8973974    3.8974167
           3.8974167    3.8974167    3.8974167    3.9047768    3.9047768

           3.9157028    3.9157028    3.9157028    3.9157028    3.9719759
           3.9719759    3.9740947    3.9740947    3.9740947    3.9740947
           4.2737867    4.2737867
       ********************************************************

------- UO2_8.scf2 --------
:GMA  : POTENTIAL AND CHARGE CUT-OFF  12.00 Ry**.5
         Bandranges (emin - emax) and occupancy:
:BAN00018:  18    0.381721    0.559904  1.00000000
:BAN00019:  19    0.473820    0.582851  1.00000000
:BAN00020:  20    0.473820    0.582851  1.00000000
:BAN00021:  21    0.541764    0.605482  1.00000000
:BAN00022:  22    0.541764    0.605482  1.00000000
:BAN00023:  23    0.575986    0.631712  1.00000000
:BAN00024:  24    0.575986    0.631712  1.00000000
:BAN00025:  25    0.776117    0.812459  0.94609093
:BAN00026:  26    0.776117    0.812459  0.94609093
:BAN00027:  27    0.808111    0.833758  0.05390907
:BAN00028:  28    0.808111    0.833758  0.05390907
:BAN00029:  29    0.814981    0.833758  0.00000000
:BAN00030:  30    0.814981    0.833758  0.00000000
:BAN00031:  31    0.841015    0.892345  0.00000000
:BAN00032:  32    0.841015    0.892345  0.00000000
:BAN00033:  33    0.866952    0.910672  0.00000000
        Energy to separate low and high energystates:    0.72612


:NLDA  : NUMBER OF ELECTRONS          =  26.000

:FLDA  : F E R M I - ENERGY           =   1.30921




:POS001: AT.NR.   1 POSITION = 0.00000 0.00000 0.00000  MULTIPLICITY =  1

       LMMAX  5
       LM=   0 0  4 0  4 4  6 0  6 4




:POS002: AT.NR.   2 POSITION = 0.00000 0.00000 0.00000  MULTIPLICITY =  2

       LMMAX  6
       LM=   0 0  4 0  4 4  6 0  6 4 -3 2
:FER DMFT Fermi Energy   0.82437
:EORB         -0.047557438
:SUM SUM OF DMFT BAND ENERGIES         -2.599516600

:CHA001: TOTAL CHARGE INSIDE SPHERE   1 =     8.160620
:PCS001: PARTIAL CHARGES SPHERE =  1 S,P,D,F,      D-EG,D-T2G 
:QTL001: 1.7983 4.1834 0.2334 1.9429 0.0000 0.0000 0.0000 0.0523 0.1918 0.0000 0.0000 0.0000
        Q-s-low E-s-low   Q-p-low E-p-low   Q-d-low E-d-low   Q-f-low E-f-low
:EPL001:  1.7981 -2.3551    4.1821 -0.5645    0.2316  0.4271    0.1830  0.5310
        Q-s-hi  E-s-hi    Q-p-hi  E-p-hi    Q-d-hi  E-d-hi    Q-f-hi  E-f-hi 
:EPH001:  0.0002  0.8619    0.0012  0.8343    0.0018  0.8372    1.7599  0.8060

:CHA002: TOTAL CHARGE INSIDE SPHERE   2 =     5.130462
:PCS002: PARTIAL CHARGES SPHERE =  2 S,P,D,F,      D-EG,D-T2G 
:QTL002: 1.5734 3.5478 0.0079 0.0012 0.0000 0.0000 0.0000 0.0029 0.0086 0.0000 0.0000 0.0000
        Q-s-low E-s-low   Q-p-low E-p-low   Q-d-low E-d-low   Q-f-low E-f-low
:EPL002:  1.5719 -0.4741    3.5333  0.5056    0.0065 -0.0175    0.0010 -0.1745
        Q-s-hi  E-s-hi    Q-p-hi  E-p-hi    Q-d-hi  E-d-hi    Q-f-hi  E-f-hi 
:EPH002:  0.0015  0.8201    0.0145  0.8256    0.0014  0.8037    0.0002  0.8107

:CHA  : TOTAL CHARGE INSIDE UNIT CELL =      26.000000

:ESUM  : SUM OF EIGENVALUES =          -2.661160472


------- UO2_8.scfc --------

        1.ATOM      U  4+                21 CORE STATES
:1S 001: 1S               -8506.473844283 Ry
:2S 001: 2S               -1587.922935689 Ry
:2PP001: 2P*              -1531.168480510 Ry
:2P 001: 2P               -1249.972933028 Ry
:3S 001: 3S                -400.064976405 Ry
:3PP001: 3P*               -374.291617066 Ry
:3P 001: 3P                -309.508457339 Ry
:3DD001: 3D*               -268.695892303 Ry
:3D 001: 3D                -255.550708777 Ry
:4S 001: 4S                -101.133740867 Ry
:4PP001: 4P*                -89.540183302 Ry
:4P 001: 4P                 -72.630348419 Ry
:4DD001: 4D*                -54.165561855 Ry
:4D 001: 4D                 -51.056956016 Ry
:5S 001: 5S                 -21.725742596 Ry
:5PP001: 5P*                -17.218864769 Ry
:5P 001: 5P                 -13.188220649 Ry
:4FF001: 4F*                -26.770706235 Ry
:4F 001: 4F                 -25.960697329 Ry
:5DD001: 5D*                 -6.598141209 Ry
:5D 001: 5D                  -5.999647748 Ry

        2.ATOM      O  2-                 1 CORE STATES
:1S 002: 1S                 -36.073976599 Ry

------- UO2_8.scfm --------
:CINT001 Core Integral Atom   1   77.964728
:CINT002 Core Integral Atom   2    2.000000
     
       CHARGES OF NEW CHARGE DENSITY
:NTO   : INTERSTITIAL CHARGE =     7.578471
:NTO001: CHARGE SPHERE  1    =    86.125348
:NTO002: CHARGE SPHERE  2    =     7.130461

:NEC01: NUCLEAR AND ELECTRONIC CHARGE    108.00000   107.96474
     
       CHARGES OF OLD CHARGE DENSITY
:OTO   : INTERSTITIAL CHARGE =     7.613760
:OTO001: CHARGE SPHERE  1    =    86.125143
:OTO002: CHARGE SPHERE  2    =     7.130548
:DNEW  1    0.0002
:DNEW  2   -0.0001

:NEC02: NUCLEAR AND ELECTRONIC CHARGE    108.00000   108.00000
     
       CONVERGENCE TEST
:DTO001: DIFFERENCE IN SPHERE  1 =  0.0001896
:DTO002: DIFFERENCE IN SPHERE  2 =  0.0000959

:DIS  :  CHARGE DISTANCE       ( 0.0001896 for atom    1 spin 1)      0.0001271
:BIG check (qbig,qrms,qtot)    0.632D-04   0.952D-04   0.127D-03
 
******************************************************
* MULTISECANT MIXING VER6 RELEASE 6.0 OPTIONS        *
* Standard Mode with controls                        *
* Regularization       1.000E-06                     *
* Trust Region Control Active                        *
* Max Number of Memory Steps    8                    *
******************************************************
 
:PLANE:  INTERSTITIAL TOTAL      2.51647 DISTAN  9.938E-04 % 
:CHARG:  CLM CHARGE   /ATOM    345.90929 DISTAN  7.474E-05 % 
 
 Step History DMIX, Red, Pred, Trust, FRMS, FABS
 34  9.3099E-02  3.2494E+00  1.1142E-01  1.9855E+00
 35  7.8248E-02  3.8363E-01  1.5805E-02  2.1678E+00
 36  7.7059E-02  1.1011E-01  4.5867E-02  2.1944E+00
 37  8.5700E-02  5.0435E-01  4.1813E-01  2.4310E+00
 38  1.0430E-01  2.7625E+00  5.3835E-01  3.0678E+00
 39  9.9544E-02  6.2652E-01  4.4738E-02  2.9884E+00
 40  1.0811E-01  1.5935E-01  1.0371E-01  1.4415E+00
 41  1.2931E-01  1.0000E+00  5.3555E-01  1.7242E+00
  
:NORMS:  Nuclear, Spectral, Froebius, Shanno-Pua   0.1051E+01  0.8747E+00  0.9204E+00  0.1194E+00
:INFO :  Number of Memory Steps    8 Skipping   32
:INFO :  SLambda=    0.1143335  Max    1.0508155

Eigenvalues, unscaled except for SY+YY
   #     SY Real        SY Imag          SS             YY         SY+YY Real      SY+YY Imag
   1   1.091125E+00   0.000000E+00   8.564912E+00   6.552595E+00   6.622759E+00   0.000000E+00
   2   2.634696E-01   0.000000E+00   7.195712E-01   1.110511E+00   1.239608E+00   0.000000E+00
   3   1.553486E-01   6.864256E-02   8.981010E-02   1.531266E-01   1.169809E-01   0.000000E+00
   4   1.553486E-01  -6.864256E-02   5.018843E-02   9.783832E-02   1.001455E-01   0.000000E+00
   5   5.018810E-02   0.000000E+00   1.211548E-02   7.136384E-02   1.001455E-01   0.000000E+00
   6   1.901160E-02   0.000000E+00   7.423794E-03   1.252285E-02   1.682990E-02   0.000000E+00
   7   4.745870E-04   0.000000E+00   3.043476E-04   2.013287E-03   1.865235E-03   0.000000E+00
   8   2.997303E-05   0.000000E+00   2.665519E-05   2.847683E-05   3.488969E-05   0.000000E+00
 
:INFO :  Decreased using Multisecant Shanno-Phua
:INFO :  Singular value   6.635E+00 Weight  1.0000E+00 Projections   2.051E-03  2.553E-04
:INFO :  Singular value   1.240E+00 Weight  1.0000E+00 Projections  -2.505E-02 -1.139E-05
:INFO :  Singular value   1.294E-01 Weight  1.0000E+00 Projections  -2.542E-02  4.360E-04
:INFO :  Singular value   1.070E-01 Weight  1.0000E+00 Projections   4.735E-03  4.732E-05
:INFO :  Singular value   8.583E-02 Weight  1.0000E+00 Projections  -1.510E-04  4.981E-04
:INFO :  Singular value   1.671E-02 Weight  1.0000E+00 Projections  -7.020E-04  1.251E-03
:INFO :  Singular value   1.857E-03 Weight  9.9999E-01 Projections  -5.154E-04 -3.326E-04
:INFO :  Singular value   3.477E-05 Weight  9.6570E-01 Projections  -1.163E-03 -3.606E-02
 
:DIRM :  MEMORY 8/8 RESCALE  19.08 RED 1.270 PRED 0.536 NEXT 0.277
:INFO :  Blimit    1.896E+00  5.000E-01  7.957E-01  1.591E+00
:DTRUS:  Lambda    7.537E-03 Increment    4.657E-09 Iterations    72
:INFOA:  Normalized Projection Angle      6.15
:INFOA:  Angle SubSpace to MSR1      2.77  7.537E-03   72
:INFO :  Limited by Atoms F by Step T

:DIRP :  |MSR1|= 1.221E-03 |PRATT|= 4.773E-04 ANGLE=  62.0 DEGREES
:DIRQ :  |MSR1|= 5.385E-04 |PRATT|= 5.171E-04 ANGLE=  28.4 DEGREES
:DIR  :  |MSR1|= 1.334E-03 |PRATT|= 7.037E-04 ANGLE=  56.5 DEGREES
:MIX  :   MSD1   REGULARIZATION: 6.55E-06  GREED: 0.119  LMStep 0.32  1.90 Step           
     
       CHARGES OF MIXED CHARGE DENSITY
:CTO   : INTERSTITIAL CHARGE =     7.613668
:CTO001: CHARGE SPHERE  1    =    86.125343
:CTO002: CHARGE SPHERE  2    =     7.130495

:NEC03: NUCLEAR AND ELECTRONIC CHARGE    108.00000   108.00000

PW CHANGE     H    K    L       Current     Change     Residue
:PTO001:      0    0    0  8.30088940E-02 -9.441E-07 -2.612E-07
:PTO002:     -1   -1   -1  2.05242558E-01 -2.295E-06  1.241E-06
:PTO003:      0    0   -2  1.06676205E-03 -6.709E-07  2.302E-06
:PTO004:      0   -2   -2  2.87589900E-01 -5.198E-06 -1.884E-06
:PTO005:     -1   -1   -3  1.59080996E-01 -8.710E-06 -1.610E-06
:PTO006:     -2   -2   -2 -1.75274307E-02 -3.837E-06 -4.042E-07
:PTO007:      0    0   -4  4.47057801E-02 -5.858E-07 -2.051E-07
:PTO008:     -1   -3   -3  3.60244920E-02 -5.887E-06 -9.396E-07
:PTO009:      0   -2   -4 -4.96848342E-02 -5.544E-06 -9.693E-07
:PTO010:     -2   -2   -4  5.03655651E-02 -2.505E-06 -5.935E-07
:PTO011:     -3   -3   -3 -3.63119448E-03 -1.662E-06 -6.864E-07
:PTO012:     -1   -1   -5 -3.03982560E-03 -2.657E-07  2.213E-08

:ENE  : ********** TOTAL ENERGY IN Ry =       -56437.55451172

