
------- case.scf0 --------
 Flat Integration
 New Mode for Coulomb Integral
 Consistent 3/8+Simpson combinations
 Extension of core to zero
 LDM version in phi
 Fifth-order quadrature in outwin


            ---------
:ITE002:  2. ITERATION
            ---------

:NATO :    2 INDEPENDENT AND    4 TOTAL ATOMS IN UNITCELL
       SUBSTANCE: FeSe                                                        

       LATTICE                      = P   
:POT  : POTENTIAL OPTION EX_LDA EC_LDA VX_LDA VC_LDA
:LAT  : LATTICE CONSTANTS=  7.12881  7.12881 10.43450    1.571    1.571    1.571
:VOL  : UNIT CELL VOLUME =     530.28024
       MODE OF CALCULATION IS       = RELA
       NON-SPINPOLARIZED CALCULATION
:IFFT  : FFT-parameters:   60   60   80 Factor: 2.00


   CONVERGENCE PARAMETER FOR PSEUDOCHARGE: NCON=  9
   MAXIMAL VALUE OF RMT(JATOM)*ABSK(NKK) : RK  =25.91023


:VKCOUL :  VK-COUL convergence: 0.208E-06
       ATOMNUMBER=  1 Fe         VCOUL-ZERO =  0.16913E+00
:EFG001:                        EFG         =     0.86257   *10**21  V / m**2
                               V20  TOT/SRF=     0.74701    -0.12210
                               V22  TOT/SRF=     0.00000     0.00000
                               V22M TOT/SRF=     0.00000     0.00000
                               V21  TOT/SRF=     0.00000     0.00000
                               V21M TOT/SRF=     0.00000     0.00000

             -0.43128    0.00000    0.00000       -0.43128    0.00000    0.00000
              0.00000   -0.43128    0.00000        0.00000   -0.43128    0.00000
              0.00000    0.00000    0.86257        0.00000    0.00000    0.86257

         MAIN DIRECTIONS OF THE EFG   1.0000  0.0000  0.0000
                                      0.0000  1.0000  0.0000
                                      0.0000  0.0000  1.0000
:ANG001:  ANGLE WITH OLD X-AXIS =         0.0

:ETA001:                         ASYMM. ETA =     0.00000


       ATOMNUMBER=  2 Se         VCOUL-ZERO =  0.31380E-01
:EFG002:                        EFG         =    -5.45448   *10**21  V / m**2
                               V20  TOT/SRF=    -4.72372    -0.04603
                               V22  TOT/SRF=     0.00000     0.00000
                               V22M TOT/SRF=     0.00000     0.00000
                               V21  TOT/SRF=     0.00000     0.00000
                               V21M TOT/SRF=     0.00000     0.00000

              2.72724    0.00000    0.00000        2.72724    0.00000    0.00000
              0.00000    2.72724    0.00000        0.00000    2.72724    0.00000
              0.00000    0.00000   -5.45448        0.00000    0.00000   -5.45448

         MAIN DIRECTIONS OF THE EFG   1.0000  0.0000  0.0000
                                      0.0000  1.0000  0.0000
                                      0.0000  0.0000  1.0000
:ANG002:  ANGLE WITH OLD X-AXIS =         0.0

:ETA002:                         ASYMM. ETA =     0.00000


     HELLMANN-FEYNMAN-FORCE IN mRy/a.u. = |F|  Fx       Fy             Fz
:FHF001:   1.ATOM      0.000000000000      0.000000000000      0.000000000000      0.000000000000

     HELLMANN-FEYNMAN-FORCE IN mRy/a.u. = |F|  Fx       Fy             Fz
:FHF002:   2.ATOM   1667.298193513686      0.000000000000      0.000000000000   1667.298193513686

:FIT001: LUSE= 13 SIGMA OF V-XC FIT FOR ATOM  1  0.2961699E-02
:FIT001: LUSE= 13 SIGMA OF V-XC FIT FOR ATOM  1  0.2961699E-02
:FIT002: LUSE= 13 SIGMA OF V-XC FIT FOR ATOM  2  0.5319166E-03
:FIT002: LUSE= 13 SIGMA OF V-XC FIT FOR ATOM  2  0.5319166E-03
:DEN  : DENSITY INTEGRAL  =         -6214.40505705   (Ry)
       ELS_POTENTIAL_AT Z=0 and Z=0.5:  -0.83959   0.73221
       ELS_POTENTIAL_AT Y=0 and Y=0.5:   0.00000   0.00000
:VZERO:v0,v0c,v0x  -1.69587  -0.83959  -0.85627 v5,v5c,v5x   0.30911   0.73221  -0.42309
:VZERY:v0,v0c,v0x  -0.69918   0.00000  -0.69918 v5,v5c,v5x  -0.69918   0.00000  -0.69918
:VZERX:v0,v0c,v0x   0.12601   0.79434  -0.66833 v5,v5c,v5x   0.12601   0.79434  -0.66833

------- case.scf1 --------
:LMAX-WF:   10   Non-Spherical LMAX:   4

          ATOMIC SPHERE DEPENDENT PARAMETERS FOR ATOM  Fe        
:e__0001: OVERALL ENERGY PARAMETER IS    0.1818
          OVERALL BASIS SET ON ATOM IS LAPW
:E1_0001: E( 1)=    0.1818
             APW+lo
:E1_0001: E( 1)=   -3.5793   E(BOTTOM)=   -3.670   E(TOP)=   -3.488  1  2   141
             LOCAL ORBITAL
:E2_0001: E( 2)=    0.2090   E(BOTTOM)=   -0.147   E(TOP)=    0.565  0  1   135
             APW+lo
:E0_0001: E( 0)=    0.1818
             APW+lo

          ATOMIC SPHERE DEPENDENT PARAMETERS FOR ATOM  Se        
:e__0002: OVERALL ENERGY PARAMETER IS    0.1818
          OVERALL BASIS SET ON ATOM IS LAPW
:E2_0002: E( 2)=    0.1818
             APW+lo
:E2_0002: E( 2)=   -3.1601   E(BOTTOM)=   -3.205   E(TOP)=   -3.116  0  1   137
             LOCAL ORBITAL
:E0_0002: E( 0)=    0.5818
             APW+lo
:E0_0002: E( 0)=   -1.0200   E(BOTTOM)=   -1.654   E(TOP)= -200.000  3 -1   186
             LOCAL ORBITAL
:E1_0002: E( 1)=    0.1818
             APW+lo

       K=   0.00000   0.00000   0.00000            1
:RKM  : MATRIX SIZE   575LOs:  54  RKM= 7.85  WEIGHT= 1.00  PGR:    
       EIGENVALUES ARE:
:EIG00001:      -3.5713052   -3.5713052   -3.5620038   -3.5620038   -3.5477097
:EIG00006:      -3.5457590   -3.1508518   -3.1503888   -3.1495918   -3.1495855
:EIG00011:      -3.1489828   -3.1489828   -3.1488104   -3.1488104   -3.1478788
:EIG00016:      -3.1478652   -0.7231470   -0.6196051   -0.0453861    0.0155745
:EIG00021:       0.0298698    0.0298698    0.0892180    0.0892180    0.0994421
:EIG00026:       0.2664102    0.2871915    0.3169662    0.3247242    0.3247242
:EIG00031:       0.3452527    0.5214009    0.5529599    0.5529599    0.6085400
:EIG00036:       0.6970831    0.7783182    0.9105167    0.9575949    0.9575949
:EIG00041:       1.2196198    1.2952031    1.2952031    1.3618018    1.3730805
:EIG00046:       1.3880724    1.4066321    1.4069524    1.4581702    1.4581702
 
:EIG00051:       1.6675620    1.6675620    1.6831136    1.7170679
       ********************************************************

:KPT   :      NUMBER OF K-POINTS:    84

------- case.scf2 --------
:GMA  : POTENTIAL AND CHARGE CUT-OFF  12.00 Ry**.5




:POS001: at.nr.  -1 position = 0.25000 0.75000 0.00000  multiplicity =  2

       lmmax  8
       lm=   0 0  2 0 -3 2  4 0  4 4 -5 2  6 0  6 4




:POS002: at.nr.  -2 position = 0.25000 0.75000 0.00000  multiplicity =  2

       lmmax 10
       lm=   0 0  1 0  2 0  3 0  4 0  4 4  5 0  5 4  6 0  6 4
:FER gutzwiller fermi energy   0.44420
:EORB        -21.816823969
:SUM sum of gutz band energies       -102.715121981

:CHA001: total charge inside sphere   1 =    12.589169
:PCS001: partial charges sphere =  1 s,p,d,f,pz,pxy,,d-z2,d-xy,d-x2y2,d-xz,yz 
:QTL001: 0.3118 6.3281 5.9160 0.0269 2.0833 4.2447 0.0000 1.3139 1.2389 1.0865 2.2767 0.0000
:VZZ001: efg inside sphere   1 =     1.601456      up to r =   2.16000

:CHA002: total charge inside sphere   2 =    13.610395
:PCS002: partial charges sphere =  2 s,p,d,f,pz,pxy,,d-z2,d-xy,d-x2y2,d-xz,yz 
:QTL002: 1.3465 2.177510.0656 0.0169 0.7414 1.4361 0.0000 2.0117 2.0153 2.0129 4.0257 0.0000
:VZZ002: efg inside sphere   2 =    -5.678708      up to r =   2.05000

:CHA  : total charge inside unit cell =      60.000000

------- case.scfc --------

        1.ATOM      Fe                    5 CORE STATES
:1S 001: 1S                -512.310625289 Ry
:2S 001: 2S                 -59.254747754 Ry
:2PP001: 2P*                -51.055595304 Ry
:2P 001: 2P                 -50.140490580 Ry
:3S 001: 3S                  -6.022615531 Ry

        2.ATOM      Se                    7 CORE STATES
       CORE-FORCE in mRy/a.u. = |F|      Fx             Fy             Fz
:FCO002:   2.ATOM   1235.847776521428      0.000000000000      0.000000000000  -1235.847776521428

:1S 002: 1S                -916.451803565 Ry
:2S 002: 2S                -117.114940474 Ry
:2PP002: 2P*               -105.089627614 Ry
:2P 002: 2P                -102.026451349 Ry
:3S 002: 3S                 -14.849871988 Ry
:3PP002: 3P*                -10.737150423 Ry
:3P 002: 3P                 -10.304819615 Ry

------- case.scfm --------
:CINT001 Core Integral Atom   1   11.997162
:CINT002 Core Integral Atom   2   17.999402

       DENSITY AT NUCLEUS
        JATOM        VALENCE       SEMI-CORE          CORE           TOTAL
:RTO001:   1        6.878798        0.000000    14798.123934    14805.002733
:RTO002:   2       55.034207        0.000000    38924.549324    38979.583531
     
       CHARGES OF NEW CHARGE DENSITY
:NTO   : INTERSTITIAL CHARGE =     7.600826
:NPC   : PW Pseudocharge     =    14.444826
:NTO001: CHARGE SPHERE  1    =    24.586331
:NTO002: CHARGE SPHERE  2    =    31.609797

:NEC01: NUCLEAR AND ELECTRONIC CHARGE    120.00000   119.99308
     
       CHARGES OF OLD CHARGE DENSITY
:OTO   : INTERSTITIAL CHARGE =     7.524854
:OPC   : PW Pseudocharge     =    14.390355
:OTO001: CHARGE SPHERE  1    =    24.677632
:OTO002: CHARGE SPHERE  2    =    31.559942

:NEC02: NUCLEAR AND ELECTRONIC CHARGE    120.00000   120.00000
     
       CONVERGENCE TEST
:DTO001: DIFFERENCE IN SPHERE  1 =  0.0888270
:DTO002: DIFFERENCE IN SPHERE  2 =  0.0342818

:DIS  :  CHARGE DISTANCE       ( 0.0888270 for atom    1 spin 1)      0.0615544
 PW Mixed is          365
 
******************************************************
* MULTISECANT MIXING VER9 RELEASE 10.4.0              *
* Standard Mode with controls                        *
* Fixed density scale                                *
* Restart from converged density                     *
* Regularization       1.000E-04                     *
* Trust Upper Limit    5.000E+00                     *
* Max Number of Memory Steps    8                    *
******************************************************
 
:INFO : Forcing a restart
:PWTMP   3.7368E+02  3.2249E+02  5.3028E+02
:PLANE:  PW TOTAL      3.8085 DISTAN   4.40E-02  1.16E+00 %
:CHARG:  CLM/ATOM    303.3469 DISTAN   7.23E-02  2.38E-02 %
 
Step History
        DMIX         DMIXT        Red     Pred      Trust     Lambda    MagRel    MagAbs     Beta
  1   3.5000E-02   3.5000E-02 -1.00E+00  1.00E+00 -1.00E+01  1.00E+00  3.50E-02  3.50E-02  1.00E+00
:INFO :  Note, Pratt in use
:TRUST:  Step 2.25E-01  Charge 7.50E-02 (e) CTO  2.50E-01 (e) PW  3.50E-01 (e)
:DIRM :  MEMORY  0/ 8 SCALE   1.000
Performing Pseudo Compensation
Final Pseudo Compensation Rescaling     9.99997E-01
:MIX  :   PRATT  REGULARIZATION:  1.00E-04 GREED: 0.15000                  
     
       CHARGES OF MIXED CHARGE DENSITY
:CTO   : INTERSTITIAL CHARGE =     7.537287
:CPC   : PW Pseudocharge     =    14.421160
:CTO001: CHARGE SPHERE  1    =    24.663937
:CTO002: CHARGE SPHERE  2    =    31.567420

:NEC03: NUCLEAR AND ELECTRONIC CHARGE    120.00000   120.00000

PW CHANGE     H    K    L      Current       Change    Residue
:PTO001:      0    0    0  4.14091368E-02  8.154E-05  2.838E-04
:PTO002:      0    0   -1  2.86074077E-02 -7.265E-05 -2.362E-04
:PTO004:     -1    0   -1 -9.16883274E-02 -5.768E-04 -1.059E-03
:PTO005:      0    0   -2 -9.76002469E-03 -1.770E-04 -3.123E-04
:PTO006:     -1   -1    0 -2.19707223E-02 -3.602E-04 -6.416E-04
:PTO007:     -1   -1   -1  8.28977817E-03 -2.502E-04 -3.771E-04
:PTO008:     -1    0   -2 -1.71515003E-02 -1.219E-04 -8.094E-05
:PTO009:     -1   -1   -2  2.74554091E-02  1.581E-04  1.571E-04
:PTO010:     -2    0    0 -1.29611802E-02 -8.894E-05 -1.059E-04
:PTO011:      0    0   -3 -2.43799865E-03 -4.275E-05  3.768E-06
:PTO012:     -2    0   -1 -2.29453195E-03  1.409E-06 -1.290E-04
:PTO014:     -1    0   -3  8.77929994E-03  1.278E-04  2.267E-05

:ENE  : ********** TOTAL ENERGY IN Ry =       -14810.25900712

       TOTAL FORCE IN mRy/a.u. = |F|     Fx             Fy             Fz     with/without FOR in case.in2
:FOR001:   1.ATOM          0.000          0.000          0.000          0.000 partial forces
:FOR002:   2.ATOM        431.450          0.000          0.000        431.450 partial forces
       TOTAL FORCE WITH RESPECT TO GLOBAL CARTESIAN COORDINATES:
:FCA001:   1.ATOM                         0.000          0.000          0.000 partial forces
:FCA002:   2.ATOM                         0.000          0.000        431.450 partial forces
       TOTAL FORCE WITH RESPECT TO THE GLOBAL COORDINATE SYSTEM:
:FGL001:   1.ATOM                 0.000000000     0.000000000     0.000000000 partial forces
:FGL002:   2.ATOM                 0.000000000     0.000000000   431.450416992 partial forces

------- case.scf0 --------
 Flat Integration
 New Mode for Coulomb Integral
 Consistent 3/8+Simpson combinations
 Extension of core to zero
 LDM version in phi
 Fifth-order quadrature in outwin


            ---------
:ITE003:  3. ITERATION
            ---------

:NATO :    2 INDEPENDENT AND    4 TOTAL ATOMS IN UNITCELL
       SUBSTANCE: FeSe                                                        

       LATTICE                      = P   
:POT  : POTENTIAL OPTION EX_LDA EC_LDA VX_LDA VC_LDA
:LAT  : LATTICE CONSTANTS=  7.12881  7.12881 10.43450    1.571    1.571    1.571
:VOL  : UNIT CELL VOLUME =     530.28024
       MODE OF CALCULATION IS       = RELA
       NON-SPINPOLARIZED CALCULATION
:IFFT  : FFT-parameters:   60   60   80 Factor: 2.00


   CONVERGENCE PARAMETER FOR PSEUDOCHARGE: NCON=  9
   MAXIMAL VALUE OF RMT(JATOM)*ABSK(NKK) : RK  =25.91023


:VKCOUL :  VK-COUL convergence: 0.209E-06
       ATOMNUMBER=  1 Fe         VCOUL-ZERO =  0.16346E+00
:EFG001:                        EFG         =     0.94160   *10**21  V / m**2
                               V20  TOT/SRF=     0.81545    -0.12717
                               V22  TOT/SRF=     0.00000     0.00000
                               V22M TOT/SRF=     0.00000     0.00000
                               V21  TOT/SRF=     0.00000     0.00000
                               V21M TOT/SRF=     0.00000     0.00000

             -0.47080    0.00000    0.00000       -0.47080    0.00000    0.00000
              0.00000   -0.47080    0.00000        0.00000   -0.47080    0.00000
              0.00000    0.00000    0.94160        0.00000    0.00000    0.94160

         MAIN DIRECTIONS OF THE EFG   1.0000  0.0000  0.0000
                                      0.0000  1.0000  0.0000
                                      0.0000  0.0000  1.0000
:ANG001:  ANGLE WITH OLD X-AXIS =         0.0

:ETA001:                         ASYMM. ETA =     0.00000


       ATOMNUMBER=  2 Se         VCOUL-ZERO =  0.33025E-01
:EFG002:                        EFG         =    -5.49932   *10**21  V / m**2
                               V20  TOT/SRF=    -4.76255    -0.04774
                               V22  TOT/SRF=     0.00000     0.00000
                               V22M TOT/SRF=     0.00000     0.00000
                               V21  TOT/SRF=     0.00000     0.00000
                               V21M TOT/SRF=     0.00000     0.00000

              2.74966    0.00000    0.00000        2.74966    0.00000    0.00000
              0.00000    2.74966    0.00000        0.00000    2.74966    0.00000
              0.00000    0.00000   -5.49932        0.00000    0.00000   -5.49932

         MAIN DIRECTIONS OF THE EFG   1.0000  0.0000  0.0000
                                      0.0000  1.0000  0.0000
                                      0.0000  0.0000  1.0000
:ANG002:  ANGLE WITH OLD X-AXIS =         0.0

:ETA002:                         ASYMM. ETA =     0.00000


     HELLMANN-FEYNMAN-FORCE IN mRy/a.u. = |F|  Fx       Fy             Fz
:FHF001:   1.ATOM      0.000000000000      0.000000000000      0.000000000000      0.000000000000

     HELLMANN-FEYNMAN-FORCE IN mRy/a.u. = |F|  Fx       Fy             Fz
:FHF002:   2.ATOM   1787.992054661241      0.000000000000      0.000000000000   1787.992054661241

:FIT001: LUSE= 13 SIGMA OF V-XC FIT FOR ATOM  1  0.2969685E-02
:FIT001: LUSE= 13 SIGMA OF V-XC FIT FOR ATOM  1  0.2969685E-02
:FIT002: LUSE= 13 SIGMA OF V-XC FIT FOR ATOM  2  0.5256697E-03
:FIT002: LUSE= 13 SIGMA OF V-XC FIT FOR ATOM  2  0.5256697E-03
:DEN  : DENSITY INTEGRAL  =         -6213.77257043   (Ry)
       ELS_POTENTIAL_AT Z=0 and Z=0.5:  -0.84805   0.73855
       ELS_POTENTIAL_AT Y=0 and Y=0.5:   0.00000   0.00000
:VZERO:v0,v0c,v0x  -1.70358  -0.84805  -0.85553 v5,v5c,v5x   0.31467   0.73855  -0.42388
:VZERY:v0,v0c,v0x  -0.69959   0.00000  -0.69959 v5,v5c,v5x  -0.69959   0.00000  -0.69959
:VZERX:v0,v0c,v0x   0.12678   0.79542  -0.66864 v5,v5c,v5x   0.12678   0.79542  -0.66864

------- case.scf1 --------
:LMAX-WF:   10   Non-Spherical LMAX:   4

          ATOMIC SPHERE DEPENDENT PARAMETERS FOR ATOM  Fe        
:e__0001: OVERALL ENERGY PARAMETER IS    0.1818
          OVERALL BASIS SET ON ATOM IS LAPW
:E1_0001: E( 1)=    0.1818
             APW+lo
:E1_0001: E( 1)=   -3.5968   E(BOTTOM)=   -3.687   E(TOP)=   -3.506  1  2   133
             LOCAL ORBITAL
:E2_0001: E( 2)=    0.1934   E(BOTTOM)=   -0.160   E(TOP)=    0.547  0  1   134
             APW+lo
:E0_0001: E( 0)=    0.1818
             APW+lo

          ATOMIC SPHERE DEPENDENT PARAMETERS FOR ATOM  Se        
:e__0002: OVERALL ENERGY PARAMETER IS    0.1818
          OVERALL BASIS SET ON ATOM IS LAPW
:E2_0002: E( 2)=    0.1818
             APW+lo
:E2_0002: E( 2)=   -3.1549   E(BOTTOM)=   -3.200   E(TOP)=   -3.110  0  1   142
             LOCAL ORBITAL
:E0_0002: E( 0)=    0.5818
             APW+lo
:E0_0002: E( 0)=   -1.0200   E(BOTTOM)=   -1.652   E(TOP)= -200.000  3 -1   185
             LOCAL ORBITAL
:E1_0002: E( 1)=    0.1818
             APW+lo

       K=   0.00000   0.00000   0.00000            1
:RKM  : MATRIX SIZE   575LOs:  54  RKM= 7.85  WEIGHT= 1.00  PGR:    
       EIGENVALUES ARE:
:EIG00001:      -3.5887762   -3.5887762   -3.5795570   -3.5795570   -3.5653329
:EIG00006:      -3.5633910   -3.1456507   -3.1452103   -3.1443750   -3.1443681
:EIG00011:      -3.1437376   -3.1437376   -3.1435736   -3.1435736   -3.1425905
:EIG00016:      -3.1425802   -0.7234876   -0.6191346   -0.0476558    0.0094813
:EIG00021:       0.0223786    0.0223786    0.0851894    0.0851894    0.0859049
:EIG00026:       0.2528224    0.2714776    0.3072087    0.3124969    0.3124969
:EIG00031:       0.3288445    0.5201323    0.5464934    0.5464934    0.6088942
:EIG00036:       0.6907532    0.7735383    0.9090497    0.9572493    0.9572493
:EIG00041:       1.2200166    1.2919541    1.2919541    1.3624650    1.3706370
:EIG00046:       1.3878142    1.4064979    1.4068350    1.4587684    1.4587684
 
:EIG00051:       1.6687971    1.6687971    1.6813930    1.7172580
       ********************************************************

:KPT   :      NUMBER OF K-POINTS:    84

------- case.scf2 --------
:GMA  : POTENTIAL AND CHARGE CUT-OFF  12.00 Ry**.5




:POS001: at.nr.  -1 position = 0.25000 0.75000 0.00000  multiplicity =  2

       lmmax  8
       lm=   0 0  2 0 -3 2  4 0  4 4 -5 2  6 0  6 4




:POS002: at.nr.  -2 position = 0.25000 0.75000 0.00000  multiplicity =  2

       lmmax 10
       lm=   0 0  1 0  2 0  3 0  4 0  4 4  5 0  5 4  6 0  6 4
:FER gutzwiller fermi energy   0.44128
:EORB        -21.960437782
:SUM sum of gutz band energies       -102.861601097

:CHA001: total charge inside sphere   1 =    12.624118
:PCS001: partial charges sphere =  1 s,p,d,f,pz,pxy,,d-z2,d-xy,d-x2y2,d-xz,yz 
:QTL001: 0.3146 6.3306 5.9457 0.0268 2.0838 4.2468 0.0000 1.3130 1.2426 1.0900 2.3001 0.0000
:VZZ001: efg inside sphere   1 =     1.484494      up to r =   2.16000

:CHA002: total charge inside sphere   2 =    13.591895
:PCS002: partial charges sphere =  2 s,p,d,f,pz,pxy,,d-z2,d-xy,d-x2y2,d-xz,yz 
:QTL002: 1.3453 2.161310.0647 0.0167 0.7347 1.4266 0.0000 2.0114 2.0149 2.0126 4.0258 0.0000
:VZZ002: efg inside sphere   2 =    -5.287622      up to r =   2.05000

:CHA  : total charge inside unit cell =      60.000000

------- case.scfc --------

        1.ATOM      Fe                    5 CORE STATES
:1S 001: 1S                -512.335340695 Ry
:2S 001: 2S                 -59.278900439 Ry
:2PP001: 2P*                -51.079909883 Ry
:2P 001: 2P                 -50.164789293 Ry
:3S 001: 3S                  -6.040750541 Ry

        2.ATOM      Se                    7 CORE STATES
       CORE-FORCE in mRy/a.u. = |F|      Fx             Fy             Fz
:FCO002:   2.ATOM   1298.046247145820      0.000000000000      0.000000000000  -1298.046247145820

:1S 002: 1S                -916.444758995 Ry
:2S 002: 2S                -117.108523421 Ry
:2PP002: 2P*               -105.083108221 Ry
:2P 002: 2P                -102.019945977 Ry
:3S 002: 3S                 -14.844473142 Ry
:3PP002: 3P*                -10.731767818 Ry
:3P 002: 3P                 -10.299463400 Ry

------- case.scfm --------
:CINT001 Core Integral Atom   1   11.997181
:CINT002 Core Integral Atom   2   17.999401

       DENSITY AT NUCLEUS
        JATOM        VALENCE       SEMI-CORE          CORE           TOTAL
:RTO001:   1        6.940105        0.000000    14798.264614    14805.204720
:RTO002:   2       54.955348        0.000000    38924.506786    38979.462134
     
       CHARGES OF NEW CHARGE DENSITY
:NTO   : INTERSTITIAL CHARGE =     7.567809
:NPC   : PW Pseudocharge     =    14.405872
:NTO001: CHARGE SPHERE  1    =    24.621299
:NTO002: CHARGE SPHERE  2    =    31.591296

:NEC01: NUCLEAR AND ELECTRONIC CHARGE    120.00000   119.99300
     
       CHARGES OF OLD CHARGE DENSITY
:OTO   : INTERSTITIAL CHARGE =     7.537287
:OPC   : PW Pseudocharge     =    14.421160
:OTO001: CHARGE SPHERE  1    =    24.663937
:OTO002: CHARGE SPHERE  2    =    31.567420

:NEC02: NUCLEAR AND ELECTRONIC CHARGE    120.00000   120.00000
     
       CONVERGENCE TEST
:DTO001: DIFFERENCE IN SPHERE  1 =  0.0305561
:DTO002: DIFFERENCE IN SPHERE  2 =  0.0157150

:DIS  :  CHARGE DISTANCE       ( 0.0305561 for atom    1 spin 1)      0.0231355
 PW Mixed is          365
 
******************************************************
* MULTISECANT MIXING VER9 RELEASE 10.4.0              *
* Standard Mode with controls                        *
* Fixed density scale                                *
* Restart from converged density                     *
* Regularization       1.000E-04                     *
* Trust Upper Limit    5.000E+00                     *
* Max Number of Memory Steps    8                    *
******************************************************
 
:INFO : Forcing a restart
:PWTMP   3.7368E+02  3.2249E+02  5.3028E+02
:PLANE:  PW TOTAL      3.8224 DISTAN   1.49E-02  3.91E-01 %
:CHARG:  CLM/ATOM    303.3471 DISTAN   2.79E-02  9.20E-03 %
 
Step History
        DMIX         DMIXT        Red     Pred      Trust     Lambda    MagRel    MagAbs     Beta
  1   3.5000E-02   3.5000E-02 -1.00E+00  1.00E+00 -1.00E+01  1.00E+00  3.50E-02  3.50E-02  1.00E+00
  2   1.5000E-01   1.5000E-01 -1.00E+00  1.00E+00 -1.00E+01  1.00E+00  1.50E-01  2.27E-02  1.00E+00
:JACOBIANS    3.318E-02   8.438E-02
  
:NORMS:  1/Froebius, Min, Max, Used   0.7766E-01  0.7766E-01  0.2346E+00  0.7766E-01
:INFO :  Number of Memory Steps    1 Skipping    0
:PREDicted Charge, CTotal, PW Trust    1.703E-02   1.546E-02   3.269E-02
:PREDicted DMix, Beta, BLim   5.0000E-02  1.2433E+00  2.1577E+00

Eigenvalues, unscaled except for SY+YY
   #     SY Real        SY Imag          SS             YY         SY+YY Real      SY+YY Imag
   1   2.346254E-01   0.000000E+00   7.765893E-02   1.000000E+00   1.234625E+00   0.000000E+00
 
:BLIM :  VZERO Control Off
:TRUST:  Step 3.00E+00  Charge 7.50E-02 (e) CTO  2.50E-01 (e) PW  3.50E-01 (e)
:DIRM :  MEMORY  1/8  SCALE   1.000 RED  0.38 PRED  1.00 NEXT  0.88 
:TRAVE:  Charge 5.53E-03 (e) CTO  4.91E-03 (e) PW  6.73E-03 (e)
:DIRP :  |MSR1|= 5.338E-03 |PRATT|= 1.493E-02 ANGLE=  69.3 DEGREES
:DIRQ :  |MSR1|= 7.287E-03 |PRATT|= 5.579E-02 ANGLE=  14.1 DEGREES
:DIRT :  |MSR1|= 9.033E-03 |PRATT|= 5.775E-02 ANGLE=  35.9 DEGREES
:MIX  :   MSR1   REGULARIZATION:  1.00E-04 GREED: 0.07125  Newton 1.00  0.1564                
     
       CHARGES OF MIXED CHARGE DENSITY
:CTO   : INTERSTITIAL CHARGE =     7.542199
:CPC   : PW Pseudocharge     =    14.427309
:CTO001: CHARGE SPHERE  1    =    24.658410
:CTO002: CHARGE SPHERE  2    =    31.570490

:NEC03: NUCLEAR AND ELECTRONIC CHARGE    120.00000   120.00000

PW CHANGE     H    K    L      Current       Change    Residue
:PTO001:      0    0    0  4.14299964E-02  2.086E-05  6.706E-05
:PTO002:      0    0   -1  2.85861339E-02 -2.127E-05 -8.682E-05
:PTO004:     -1    0   -1 -9.18137327E-02 -1.254E-04 -3.856E-05
:PTO005:      0    0   -2 -9.79865794E-03 -3.863E-05 -1.113E-05
:PTO006:     -1   -1    0 -2.20575416E-02 -8.682E-05 -1.162E-04
:PTO007:     -1   -1   -1  8.22044912E-03 -6.933E-05 -1.693E-04
:PTO008:     -1    0   -2 -1.71831016E-02 -3.160E-05 -3.767E-05
:PTO009:     -1   -1   -2  2.74841617E-02  2.875E-05 -7.893E-05
:PTO010:     -2    0    0 -1.29750870E-02 -1.391E-05  6.657E-05
:PTO011:      0    0   -3 -2.44459568E-03 -6.597E-06  4.368E-05
:PTO012:     -2    0   -1 -2.30312279E-03 -8.591E-06 -1.261E-04
:PTO014:     -1    0   -3  8.79888654E-03  1.959E-05 -1.256E-04

:ENE  : ********** TOTAL ENERGY IN Ry =       -14810.25833129

       TOTAL FORCE IN mRy/a.u. = |F|     Fx             Fy             Fz     with/without FOR in case.in2
:FOR001:   1.ATOM          0.000          0.000          0.000          0.000 partial forces
:FOR002:   2.ATOM        489.946          0.000          0.000        489.946 partial forces
       TOTAL FORCE WITH RESPECT TO GLOBAL CARTESIAN COORDINATES:
:FCA001:   1.ATOM                         0.000          0.000          0.000 partial forces
:FCA002:   2.ATOM                         0.000          0.000        489.946 partial forces
       TOTAL FORCE WITH RESPECT TO THE GLOBAL COORDINATE SYSTEM:
:FGL001:   1.ATOM                 0.000000000     0.000000000     0.000000000 partial forces
:FGL002:   2.ATOM                 0.000000000     0.000000000   489.945807515 partial forces

------- case.scf0 --------
 Flat Integration
 New Mode for Coulomb Integral
 Consistent 3/8+Simpson combinations
 Extension of core to zero
 LDM version in phi
 Fifth-order quadrature in outwin


            ---------
:ITE004:  4. ITERATION
            ---------

:NATO :    2 INDEPENDENT AND    4 TOTAL ATOMS IN UNITCELL
       SUBSTANCE: FeSe                                                        

       LATTICE                      = P   
:POT  : POTENTIAL OPTION EX_LDA EC_LDA VX_LDA VC_LDA
:LAT  : LATTICE CONSTANTS=  7.12881  7.12881 10.43450    1.571    1.571    1.571
:VOL  : UNIT CELL VOLUME =     530.28024
       MODE OF CALCULATION IS       = RELA
       NON-SPINPOLARIZED CALCULATION
:IFFT  : FFT-parameters:   60   60   80 Factor: 2.00


   CONVERGENCE PARAMETER FOR PSEUDOCHARGE: NCON=  9
   MAXIMAL VALUE OF RMT(JATOM)*ABSK(NKK) : RK  =25.91023


:VKCOUL :  VK-COUL convergence: 0.209E-06
       ATOMNUMBER=  1 Fe         VCOUL-ZERO =  0.16123E+00
:EFG001:                        EFG         =     0.98281   *10**21  V / m**2
                               V20  TOT/SRF=     0.85114    -0.12872
                               V22  TOT/SRF=     0.00000     0.00000
                               V22M TOT/SRF=     0.00000     0.00000
                               V21  TOT/SRF=     0.00000     0.00000
                               V21M TOT/SRF=     0.00000     0.00000

             -0.49141    0.00000    0.00000       -0.49141    0.00000    0.00000
              0.00000   -0.49141    0.00000        0.00000   -0.49141    0.00000
              0.00000    0.00000    0.98281        0.00000    0.00000    0.98281

         MAIN DIRECTIONS OF THE EFG   1.0000  0.0000  0.0000
                                      0.0000  1.0000  0.0000
                                      0.0000  0.0000  1.0000
:ANG001:  ANGLE WITH OLD X-AXIS =         0.0

:ETA001:                         ASYMM. ETA =     0.00000


       ATOMNUMBER=  2 Se         VCOUL-ZERO =  0.33655E-01
:EFG002:                        EFG         =    -5.49263   *10**21  V / m**2
                               V20  TOT/SRF=    -4.75675    -0.04847
                               V22  TOT/SRF=     0.00000     0.00000
                               V22M TOT/SRF=     0.00000     0.00000
                               V21  TOT/SRF=     0.00000     0.00000
                               V21M TOT/SRF=     0.00000     0.00000

              2.74631    0.00000    0.00000        2.74631    0.00000    0.00000
              0.00000    2.74631    0.00000        0.00000    2.74631    0.00000
              0.00000    0.00000   -5.49263        0.00000    0.00000   -5.49263

         MAIN DIRECTIONS OF THE EFG   1.0000  0.0000  0.0000
                                      0.0000  1.0000  0.0000
                                      0.0000  0.0000  1.0000
:ANG002:  ANGLE WITH OLD X-AXIS =         0.0

:ETA002:                         ASYMM. ETA =     0.00000


     HELLMANN-FEYNMAN-FORCE IN mRy/a.u. = |F|  Fx       Fy             Fz
:FHF001:   1.ATOM      0.000000000000      0.000000000000      0.000000000000      0.000000000000

     HELLMANN-FEYNMAN-FORCE IN mRy/a.u. = |F|  Fx       Fy             Fz
:FHF002:   2.ATOM   1822.981429494048      0.000000000000      0.000000000000   1822.981429494048

:FIT001: LUSE= 13 SIGMA OF V-XC FIT FOR ATOM  1  0.2975043E-02
:FIT001: LUSE= 13 SIGMA OF V-XC FIT FOR ATOM  1  0.2975043E-02
:FIT002: LUSE= 13 SIGMA OF V-XC FIT FOR ATOM  2  0.5226412E-03
:FIT002: LUSE= 13 SIGMA OF V-XC FIT FOR ATOM  2  0.5226412E-03
:DEN  : DENSITY INTEGRAL  =         -6213.59166956   (Ry)
       ELS_POTENTIAL_AT Z=0 and Z=0.5:  -0.85154   0.74092
       ELS_POTENTIAL_AT Y=0 and Y=0.5:   0.00000   0.00000
:VZERO:v0,v0c,v0x  -1.70692  -0.85154  -0.85538 v5,v5c,v5x   0.31670   0.74092  -0.42421
:VZERY:v0,v0c,v0x  -0.69974   0.00000  -0.69974 v5,v5c,v5x  -0.69974   0.00000  -0.69974
:VZERX:v0,v0c,v0x   0.12698   0.79577  -0.66879 v5,v5c,v5x   0.12698   0.79577  -0.66879

------- case.scf1 --------
:LMAX-WF:   10   Non-Spherical LMAX:   4

          ATOMIC SPHERE DEPENDENT PARAMETERS FOR ATOM  Fe        
:e__0001: OVERALL ENERGY PARAMETER IS    0.1818
          OVERALL BASIS SET ON ATOM IS LAPW
:E1_0001: E( 1)=    0.1818
             APW+lo
:E1_0001: E( 1)=   -3.6026   E(BOTTOM)=   -3.693   E(TOP)=   -3.512  1  2   134
             LOCAL ORBITAL
:E2_0001: E( 2)=    0.1881   E(BOTTOM)=   -0.165   E(TOP)=    0.541  0  1   137
             APW+lo
:E0_0001: E( 0)=    0.1818
             APW+lo

          ATOMIC SPHERE DEPENDENT PARAMETERS FOR ATOM  Se        
:e__0002: OVERALL ENERGY PARAMETER IS    0.1818
          OVERALL BASIS SET ON ATOM IS LAPW
:E2_0002: E( 2)=    0.1818
             APW+lo
:E2_0002: E( 2)=   -3.1529   E(BOTTOM)=   -3.198   E(TOP)=   -3.108  0  1   146
             LOCAL ORBITAL
:E0_0002: E( 0)=    0.5818
             APW+lo
:E0_0002: E( 0)=   -1.0200   E(BOTTOM)=   -1.651   E(TOP)= -200.000  3 -1   184
             LOCAL ORBITAL
:E1_0002: E( 1)=    0.1818
             APW+lo

       K=   0.00000   0.00000   0.00000            1
:RKM  : MATRIX SIZE   575LOs:  54  RKM= 7.85  WEIGHT= 1.00  PGR:    
       EIGENVALUES ARE:
:EIG00001:      -3.5945597   -3.5945597   -3.5853646   -3.5853646   -3.5712614
:EIG00006:      -3.5693222   -3.1437386   -3.1433053   -3.1424556   -3.1424485
:EIG00011:      -3.1418122   -3.1418122   -3.1416508   -3.1416508   -3.1406514
:EIG00016:      -3.1406421   -0.7235945   -0.6189257   -0.0484739    0.0073887
:EIG00021:       0.0197529    0.0197529    0.0812940    0.0837349    0.0837349
:EIG00026:       0.2481588    0.2662210    0.3039635    0.3084090    0.3084090
:EIG00031:       0.3233749    0.5197715    0.5444307    0.5444307    0.6090129
:EIG00036:       0.6887012    0.7718663    0.9084754    0.9571322    0.9571322
:EIG00041:       1.2202183    1.2907652    1.2907652    1.3627223    1.3698331
:EIG00046:       1.3877355    1.4065067    1.4067563    1.4590265    1.4590265
 
:EIG00051:       1.6692855    1.6692855    1.6807423    1.7172988
       ********************************************************

:KPT   :      NUMBER OF K-POINTS:    84

------- case.scf2 --------
:GMA  : POTENTIAL AND CHARGE CUT-OFF  12.00 Ry**.5




:POS001: at.nr.  -1 position = 0.25000 0.75000 0.00000  multiplicity =  2

       lmmax  8
       lm=   0 0  2 0 -3 2  4 0  4 4 -5 2  6 0  6 4




:POS002: at.nr.  -2 position = 0.25000 0.75000 0.00000  multiplicity =  2

       lmmax 10
       lm=   0 0  1 0  2 0  3 0  4 0  4 4  5 0  5 4  6 0  6 4
:FER gutzwiller fermi energy   0.44000
:EORB        -22.003895967
:SUM sum of gutz band energies       -102.912545441

:CHA001: total charge inside sphere   1 =    12.637262
:PCS001: partial charges sphere =  1 s,p,d,f,pz,pxy,,d-z2,d-xy,d-x2y2,d-xz,yz 
:QTL001: 0.3156 6.3315 5.9570 0.0268 2.0839 4.2476 0.0000 1.3129 1.2443 1.0906 2.3092 0.0000
:VZZ001: efg inside sphere   1 =     1.428829      up to r =   2.16000

:CHA002: total charge inside sphere   2 =    13.584648
:PCS002: partial charges sphere =  2 s,p,d,f,pz,pxy,,d-z2,d-xy,d-x2y2,d-xz,yz 
:QTL002: 1.3448 2.154710.0645 0.0167 0.7320 1.4227 0.0000 2.0113 2.0148 2.0125 4.0258 0.0000
:VZZ002: efg inside sphere   2 =    -5.138799      up to r =   2.05000

:CHA  : total charge inside unit cell =      60.000000

------- case.scfc --------

        1.ATOM      Fe                    5 CORE STATES
:1S 001: 1S                -512.342168122 Ry
:2S 001: 2S                 -59.285964739 Ry
:2PP001: 2P*                -51.086958671 Ry
:2P 001: 2P                 -50.171839043 Ry
:3S 001: 3S                  -6.046754126 Ry

        2.ATOM      Se                    7 CORE STATES
       CORE-FORCE in mRy/a.u. = |F|      Fx             Fy             Fz
:FCO002:   2.ATOM   1315.066217481236      0.000000000000      0.000000000000  -1315.066217481236

:1S 002: 1S                -916.442329786 Ry
:2S 002: 2S                -117.106298394 Ry
:2PP002: 2P*               -105.080852214 Ry
:2P 002: 2P                -102.017694192 Ry
:3S 002: 3S                 -14.842492323 Ry
:3PP002: 3P*                -10.729792702 Ry
:3P 002: 3P                 -10.297495310 Ry

------- case.scfm --------
:CINT001 Core Integral Atom   1   11.997187
:CINT002 Core Integral Atom   2   17.999401

       DENSITY AT NUCLEUS
        JATOM        VALENCE       SEMI-CORE          CORE           TOTAL
:RTO001:   1        6.963162        0.000000    14798.291273    14805.254434
:RTO002:   2       54.924741        0.000000    38924.495108    38979.419849
     
       CHARGES OF NEW CHARGE DENSITY
:NTO   : INTERSTITIAL CHARGE =     7.556510
:NPC   : PW Pseudocharge     =    14.392314
:NTO001: CHARGE SPHERE  1    =    24.634449
:NTO002: CHARGE SPHERE  2    =    31.584049

:NEC01: NUCLEAR AND ELECTRONIC CHARGE    120.00000   119.99351
     
       CHARGES OF OLD CHARGE DENSITY
:OTO   : INTERSTITIAL CHARGE =     7.542199
:OPC   : PW Pseudocharge     =    14.427309
:OTO001: CHARGE SPHERE  1    =    24.658410
:OTO002: CHARGE SPHERE  2    =    31.570490

:NEC02: NUCLEAR AND ELECTRONIC CHARGE    120.00000   120.00000
     
       CONVERGENCE TEST
:DTO001: DIFFERENCE IN SPHERE  1 =  0.0258760
:DTO002: DIFFERENCE IN SPHERE  2 =  0.0092867

:DIS  :  CHARGE DISTANCE       ( 0.0258760 for atom    1 spin 1)      0.0175813
 PW Mixed is          365
 
******************************************************
* MULTISECANT MIXING VER9 RELEASE 10.4.0              *
* Standard Mode with controls                        *
* Fixed density scale                                *
* Regularization       1.000E-04                     *
* Trust Upper Limit    5.000E+00                     *
* Max Number of Memory Steps    8                    *
******************************************************
 
:PWTMP   3.7368E+02  3.2249E+02  5.3028E+02
:PLANE:  PW TOTAL      3.8255 DISTAN   1.56E-02  4.09E-01 %
:CHARG:  CLM/ATOM    303.3474 DISTAN   2.16E-02  7.12E-03 %
 
Step History
        DMIX         DMIXT        Red     Pred      Trust     Lambda    MagRel    MagAbs     Beta
  1   3.5000E-02   3.5000E-02 -1.00E+00  1.00E+00 -1.00E+01  1.00E+00  3.50E-02  3.50E-02  1.00E+00
  2   1.5000E-01   1.5000E-01  3.82E-01  1.00E+00 -1.00E+01  1.00E+00  1.50E-01  2.27E-02  1.00E+00
  3   7.1250E-02   7.1250E-02 -1.00E+00  8.76E-01  3.00E+00  1.00E+00  1.56E-01  9.03E-03  1.00E+00
:JACOBIANS    9.946E-02   3.530E-01
  
:NORMS:  1/Froebius, Min, Max, Used   0.2557E+00  0.2529E+00  0.5057E+00  0.2770E+00
:INFO :  Number of Memory Steps    2 Skipping    0
:INFO :  SLambda=    1.6934866100  Max    1.6934866100
:PREDicted Charge, CTotal, PW Trust    1.427E-02   1.196E-02   9.324E-03
:PREDicted DMix, Beta, BLim   5.3214E-01  1.1738E+00  8.1280E-01

Eigenvalues, unscaled except for SY+YY
   #     SY Real        SY Imag          SS             YY         SY+YY Real      SY+YY Imag
   1   4.112810E-01   0.000000E+00   1.275052E-01   1.993167E+00   2.690611E+00   0.000000E+00
   2   4.720936E-03   0.000000E+00   3.234848E-03   6.832746E-03   1.388257E-02   0.000000E+00
 
:INFO :  Singular value  2.692E+00 Weight  1.000E+00 Projection -1.574E-04
:INFO :  Singular value  1.388E-02 Weight  9.998E-01 Projection -5.478E-01
:RANK :  ACTIVE   2.00/2  =  99.99 % ; YY RANK   2.00/2  =  99.96 %
 
:BLIM :  VZERO Control Off
:TRUST:  Step 1.90E+00  Charge 7.50E-02 (e) CTO  2.50E-01 (e) PW  3.50E-01 (e)
:DIRM :  MEMORY  2/8  SCALE   1.000 RED  0.80 PRED  0.88 NEXT  0.30 
:TRAVE:  Charge 7.04E-03 (e) CTO  6.28E-03 (e) PW  1.08E-02 (e)
:DIRP :  |MSR1|= 2.099E-02 |PRATT|= 1.563E-02 ANGLE=  33.0 DEGREES
:DIRQ :  |MSR1|= 2.561E-02 |PRATT|= 4.320E-02 ANGLE=  21.2 DEGREES
:DIRT :  |MSR1|= 3.311E-02 |PRATT|= 4.594E-02 ANGLE=  30.8 DEGREES
:MIX  :   MSE1   REGULARIZATION:  1.99E-04 GREED: 0.17813  Newton 1.00  0.7206                
     
       CHARGES OF MIXED CHARGE DENSITY
:CTO   : INTERSTITIAL CHARGE =     7.549849
:CPC   : PW Pseudocharge     =    14.395229
:CTO001: CHARGE SPHERE  1    =    24.649857
:CTO002: CHARGE SPHERE  2    =    31.575218

:NEC03: NUCLEAR AND ELECTRONIC CHARGE    120.00000   120.00000

PW CHANGE     H    K    L      Current       Change    Residue
:PTO001:      0    0    0  4.13839241E-02 -4.607E-05 -3.431E-06
:PTO002:      0    0   -1  2.86113455E-02  2.521E-05 -3.040E-05
:PTO004:     -1    0   -1 -9.13009801E-02  5.128E-04  2.697E-04
:PTO005:      0    0   -2 -9.64424576E-03  1.544E-04  7.883E-05
:PTO006:     -1   -1    0 -2.18179006E-02  2.396E-04  4.524E-05
:PTO007:     -1   -1   -1  8.29779710E-03  7.735E-05 -1.046E-04
:PTO008:     -1    0   -2 -1.71277527E-02  5.535E-05 -2.780E-05
:PTO009:     -1   -1   -2  2.72978476E-02 -1.863E-04 -1.417E-04
:PTO010:     -2    0    0 -1.28453485E-02  1.297E-04  1.155E-04
:PTO011:      0    0   -3 -2.38765302E-03  5.694E-05  4.947E-05
:PTO012:     -2    0   -1 -2.37211359E-03 -6.899E-05 -1.098E-04
:PTO014:     -1    0   -3  8.62733727E-03 -1.715E-04 -1.520E-04

:ENE  : ********** TOTAL ENERGY IN Ry =       -14810.25878364

       TOTAL FORCE IN mRy/a.u. = |F|     Fx             Fy             Fz     with/without FOR in case.in2
:FOR001:   1.ATOM          0.000          0.000          0.000          0.000 partial forces
:FOR002:   2.ATOM        507.915          0.000          0.000        507.915 partial forces
       TOTAL FORCE WITH RESPECT TO GLOBAL CARTESIAN COORDINATES:
:FCA001:   1.ATOM                         0.000          0.000          0.000 partial forces
:FCA002:   2.ATOM                         0.000          0.000        507.915 partial forces
       TOTAL FORCE WITH RESPECT TO THE GLOBAL COORDINATE SYSTEM:
:FGL001:   1.ATOM                 0.000000000     0.000000000     0.000000000 partial forces
:FGL002:   2.ATOM                 0.000000000     0.000000000   507.915212013 partial forces

------- case.scf0 --------
 Flat Integration
 New Mode for Coulomb Integral
 Consistent 3/8+Simpson combinations
 Extension of core to zero
 LDM version in phi
 Fifth-order quadrature in outwin


            ---------
:ITE005:  5. ITERATION
            ---------

:NATO :    2 INDEPENDENT AND    4 TOTAL ATOMS IN UNITCELL
       SUBSTANCE: FeSe                                                        

       LATTICE                      = P   
:POT  : POTENTIAL OPTION EX_LDA EC_LDA VX_LDA VC_LDA
:LAT  : LATTICE CONSTANTS=  7.12881  7.12881 10.43450    1.571    1.571    1.571
:VOL  : UNIT CELL VOLUME =     530.28024
       MODE OF CALCULATION IS       = RELA
       NON-SPINPOLARIZED CALCULATION
:IFFT  : FFT-parameters:   60   60   80 Factor: 2.00


   CONVERGENCE PARAMETER FOR PSEUDOCHARGE: NCON=  9
   MAXIMAL VALUE OF RMT(JATOM)*ABSK(NKK) : RK  =25.91023


:VKCOUL :  VK-COUL convergence: 0.208E-06
       ATOMNUMBER=  1 Fe         VCOUL-ZERO =  0.15852E+00
:EFG001:                        EFG         =     1.10505   *10**21  V / m**2
                               V20  TOT/SRF=     0.95700    -0.12709
                               V22  TOT/SRF=     0.00000     0.00000
                               V22M TOT/SRF=     0.00000     0.00000
                               V21  TOT/SRF=     0.00000     0.00000
                               V21M TOT/SRF=     0.00000     0.00000

             -0.55253    0.00000    0.00000       -0.55253    0.00000    0.00000
              0.00000   -0.55253    0.00000        0.00000   -0.55253    0.00000
              0.00000    0.00000    1.10505        0.00000    0.00000    1.10505

         MAIN DIRECTIONS OF THE EFG   1.0000  0.0000  0.0000
                                      0.0000  1.0000  0.0000
                                      0.0000  0.0000  1.0000
:ANG001:  ANGLE WITH OLD X-AXIS =         0.0

:ETA001:                         ASYMM. ETA =     0.00000


       ATOMNUMBER=  2 Se         VCOUL-ZERO =  0.34355E-01
:EFG002:                        EFG         =    -5.27555   *10**21  V / m**2
                               V20  TOT/SRF=    -4.56876    -0.04970
                               V22  TOT/SRF=     0.00000     0.00000
                               V22M TOT/SRF=     0.00000     0.00000
                               V21  TOT/SRF=     0.00000     0.00000
                               V21M TOT/SRF=     0.00000     0.00000

              2.63778    0.00000    0.00000        2.63778    0.00000    0.00000
              0.00000    2.63778    0.00000        0.00000    2.63778    0.00000
              0.00000    0.00000   -5.27555        0.00000    0.00000   -5.27555

         MAIN DIRECTIONS OF THE EFG   1.0000  0.0000  0.0000
                                      0.0000  1.0000  0.0000
                                      0.0000  0.0000  1.0000
:ANG002:  ANGLE WITH OLD X-AXIS =         0.0

:ETA002:                         ASYMM. ETA =     0.00000


     HELLMANN-FEYNMAN-FORCE IN mRy/a.u. = |F|  Fx       Fy             Fz
:FHF001:   1.ATOM      0.000000000000      0.000000000000      0.000000000000      0.000000000000

     HELLMANN-FEYNMAN-FORCE IN mRy/a.u. = |F|  Fx       Fy             Fz
:FHF002:   2.ATOM   1766.543076474974      0.000000000000      0.000000000000   1766.543076474974

:FIT001: LUSE= 13 SIGMA OF V-XC FIT FOR ATOM  1  0.2995404E-02
:FIT001: LUSE= 13 SIGMA OF V-XC FIT FOR ATOM  1  0.2995404E-02
:FIT002: LUSE= 13 SIGMA OF V-XC FIT FOR ATOM  2  0.5141727E-03
:FIT002: LUSE= 13 SIGMA OF V-XC FIT FOR ATOM  2  0.5141727E-03
:DEN  : DENSITY INTEGRAL  =         -6213.77527947   (Ry)
       ELS_POTENTIAL_AT Z=0 and Z=0.5:  -0.85678   0.74288
       ELS_POTENTIAL_AT Y=0 and Y=0.5:   0.00000   0.00000
:VZERO:v0,v0c,v0x  -1.71295  -0.85678  -0.85618 v5,v5c,v5x   0.31810   0.74288  -0.42478
:VZERY:v0,v0c,v0x  -0.69990   0.00000  -0.69990 v5,v5c,v5x  -0.69990   0.00000  -0.69990
:VZERX:v0,v0c,v0x   0.12660   0.79583  -0.66922 v5,v5c,v5x   0.12660   0.79583  -0.66922

------- case.scf1 --------
:LMAX-WF:   10   Non-Spherical LMAX:   4

          ATOMIC SPHERE DEPENDENT PARAMETERS FOR ATOM  Fe        
:e__0001: OVERALL ENERGY PARAMETER IS    0.1818
          OVERALL BASIS SET ON ATOM IS LAPW
:E1_0001: E( 1)=    0.1818
             APW+lo
:E1_0001: E( 1)=   -3.6033   E(BOTTOM)=   -3.694   E(TOP)=   -3.513  1  2   132
             LOCAL ORBITAL
:E2_0001: E( 2)=    0.1869   E(BOTTOM)=   -0.167   E(TOP)=    0.541  0  1   134
             APW+lo
:E0_0001: E( 0)=    0.1818
             APW+lo

          ATOMIC SPHERE DEPENDENT PARAMETERS FOR ATOM  Se        
:e__0002: OVERALL ENERGY PARAMETER IS    0.1818
          OVERALL BASIS SET ON ATOM IS LAPW
:E2_0002: E( 2)=    0.1818
             APW+lo
:E2_0002: E( 2)=   -3.1516   E(BOTTOM)=   -3.196   E(TOP)=   -3.107  0  1   143
             LOCAL ORBITAL
:E0_0002: E( 0)=    0.5818
             APW+lo
:E0_0002: E( 0)=   -1.0200   E(BOTTOM)=   -1.649   E(TOP)= -200.000  3 -1   183
             LOCAL ORBITAL
:E1_0002: E( 1)=    0.1818
             APW+lo

       K=   0.00000   0.00000   0.00000            1
:RKM  : MATRIX SIZE   575LOs:  54  RKM= 7.85  WEIGHT= 1.00  PGR:    
       EIGENVALUES ARE:
:EIG00001:      -3.5949656   -3.5949656   -3.5857523   -3.5857523   -3.5724645
:EIG00006:      -3.5705213   -3.1424171   -3.1419851   -3.1411147   -3.1411074
:EIG00011:      -3.1405166   -3.1405166   -3.1403556   -3.1403556   -3.1393636
:EIG00016:      -3.1393545   -0.7234044   -0.6183811   -0.0486693    0.0069982
:EIG00021:       0.0189066    0.0189066    0.0801198    0.0833083    0.0833083
:EIG00026:       0.2467160    0.2655151    0.3031626    0.3073887    0.3073887
:EIG00031:       0.3227221    0.5202273    0.5444873    0.5444873    0.6090778
:EIG00036:       0.6885528    0.7709935    0.9077395    0.9570713    0.9570713
:EIG00041:       1.2207586    1.2899876    1.2899876    1.3628513    1.3699471
:EIG00046:       1.3877294    1.4065038    1.4067196    1.4594004    1.4594004
 
:EIG00051:       1.6698078    1.6698078    1.6801841    1.7171229
       ********************************************************

:KPT   :      NUMBER OF K-POINTS:    84

------- case.scf2 --------
:GMA  : POTENTIAL AND CHARGE CUT-OFF  12.00 Ry**.5




:POS001: at.nr.  -1 position = 0.25000 0.75000 0.00000  multiplicity =  2

       lmmax  8
       lm=   0 0  2 0 -3 2  4 0  4 4 -5 2  6 0  6 4




:POS002: at.nr.  -2 position = 0.25000 0.75000 0.00000  multiplicity =  2

       lmmax 10
       lm=   0 0  1 0  2 0  3 0  4 0  4 4  5 0  5 4  6 0  6 4
:FER gutzwiller fermi energy   0.43973
:EORB        -22.013368630
:SUM sum of gutz band energies       -102.898668262

:CHA001: total charge inside sphere   1 =    12.640615
:PCS001: partial charges sphere =  1 s,p,d,f,pz,pxy,,d-z2,d-xy,d-x2y2,d-xz,yz 
:QTL001: 0.3165 6.3324 5.9585 0.0268 2.0841 4.2483 0.0000 1.3146 1.2434 1.0883 2.3122 0.0000
:VZZ001: efg inside sphere   1 =     1.260881      up to r =   2.16000

:CHA002: total charge inside sphere   2 =    13.580105
:PCS002: partial charges sphere =  2 s,p,d,f,pz,pxy,,d-z2,d-xy,d-x2y2,d-xz,yz 
:QTL002: 1.3444 2.150510.0647 0.0167 0.7305 1.4200 0.0000 2.0113 2.0149 2.0126 4.0259 0.0000
:VZZ002: efg inside sphere   2 =    -5.124438      up to r =   2.05000

:CHA  : total charge inside unit cell =      60.000000

------- case.scfc --------

        1.ATOM      Fe                    5 CORE STATES
:1S 001: 1S                -512.332345606 Ry
:2S 001: 2S                 -59.279352234 Ry
:2PP001: 2P*                -51.079821565 Ry
:2P 001: 2P                 -50.164749137 Ry
:3S 001: 3S                  -6.047211606 Ry

        2.ATOM      Se                    7 CORE STATES
       CORE-FORCE in mRy/a.u. = |F|      Fx             Fy             Fz
:FCO002:   2.ATOM   1276.796248897196      0.000000000000      0.000000000000  -1276.796248897196

:1S 002: 1S                -916.441923871 Ry
:2S 002: 2S                -117.105832666 Ry
:2PP002: 2P*               -105.080415802 Ry
:2P 002: 2P                -102.017253550 Ry
:3S 002: 3S                 -14.841165914 Ry
:3PP002: 3P*                -10.728467089 Ry
:3P 002: 3P                 -10.296152827 Ry

------- case.scfm --------
:CINT001 Core Integral Atom   1   11.997182
:CINT002 Core Integral Atom   2   17.999401

       DENSITY AT NUCLEUS
        JATOM        VALENCE       SEMI-CORE          CORE           TOTAL
:RTO001:   1        6.989381        0.000000    14798.141770    14805.131151
:RTO002:   2       54.893195        0.000000    38924.518659    38979.411853
     
       CHARGES OF NEW CHARGE DENSITY
:NTO   : INTERSTITIAL CHARGE =     7.558693
:NPC   : PW Pseudocharge     =    14.392189
:NTO001: CHARGE SPHERE  1    =    24.637797
:NTO002: CHARGE SPHERE  2    =    31.579505

:NEC01: NUCLEAR AND ELECTRONIC CHARGE    120.00000   119.99330
     
       CHARGES OF OLD CHARGE DENSITY
:OTO   : INTERSTITIAL CHARGE =     7.549849
:OPC   : PW Pseudocharge     =    14.395229
:OTO001: CHARGE SPHERE  1    =    24.649857
:OTO002: CHARGE SPHERE  2    =    31.575218

:NEC02: NUCLEAR AND ELECTRONIC CHARGE    120.00000   120.00000
     
       CONVERGENCE TEST
:DTO001: DIFFERENCE IN SPHERE  1 =  0.0108221
:DTO002: DIFFERENCE IN SPHERE  2 =  0.0029776

:DIS  :  CHARGE DISTANCE       ( 0.0108221 for atom    1 spin 1)      0.0068998
 PW Mixed is          365
 
******************************************************
* MULTISECANT MIXING VER9 RELEASE 10.4.0              *
* Standard Mode with controls                        *
* Fixed density scale                                *
* Regularization       1.000E-04                     *
* Trust Upper Limit    5.000E+00                     *
* Max Number of Memory Steps    8                    *
******************************************************
 
:PWTMP   3.7368E+02  3.2249E+02  5.3028E+02
:PLANE:  PW TOTAL      3.8131 DISTAN   6.79E-03  1.78E-01 %
:CHARG:  CLM/ATOM    303.3495 DISTAN   8.57E-03  2.82E-03 %
 
Step History
        DMIX         DMIXT        Red     Pred      Trust     Lambda    MagRel    MagAbs     Beta
  1   3.5000E-02   3.5000E-02 -1.00E+00  1.00E+00 -1.00E+01  1.00E+00  3.50E-02  3.50E-02  1.00E+00
  2   1.5000E-01   1.5000E-01  3.82E-01  1.00E+00 -1.00E+01  1.00E+00  1.50E-01  2.27E-02  1.00E+00
  3   7.1250E-02   7.1250E-02  7.96E-01  8.76E-01  3.00E+00  1.69E+00  1.56E-01  9.03E-03  1.00E+00
  4   1.7813E-01   1.7813E-01 -1.00E+00  3.01E-01  1.90E+00  1.00E+00  7.21E-01  3.31E-02  1.00E+00
:JACOBIANS    1.450E-01   5.934E-01
  
:NORMS:  1/Froebius, Min, Max, Used   0.6074E+00  0.3684E+00  0.7585E+00  0.7585E+00
:INFO :  Number of Memory Steps    3 Skipping    0
:INFO :  SLambda=    1.8859098640  Max    1.8859098640
:PREDicted Charge, CTotal, PW Trust    1.344E-02   1.227E-02   1.166E-02
:PREDicted DMix, Beta, BLim   1.5367E-01  1.0648E+00  7.8022E-01

Eigenvalues, unscaled except for SY+YY
   #     SY Real        SY Imag          SS             YY         SY+YY Real      SY+YY Imag
   1   1.100160E+00   0.000000E+00   1.025436E+00   1.782295E+00   3.103280E-04   0.000000E+00
   2   3.231095E-01   0.000000E+00   8.120515E-02   1.217479E+00   1.851451E+00   0.000000E+00
   3   4.342246E-05   0.000000E+00   1.112707E-05   2.259903E-04   3.832480E+00   0.000000E+00
 
:INFO :  Singular value  3.985E+00 Weight  1.000E+00 Projection  1.436E-03
:INFO :  Singular value  1.781E+00 Weight  1.000E+00 Projection -1.502E-02
:INFO :  Singular value  3.103E-04 Weight  7.520E-01 Projection -1.293E-01
:RANK :  ACTIVE   2.75/3  =  91.73 % ; YY RANK   2.62/3  =  87.22 %
 
:BLIM :  VZERO Control Off
:TRUST:  Step 2.54E+00  Charge 7.50E-02 (e) CTO  2.50E-01 (e) PW  3.50E-01 (e)
:DIRM :  MEMORY  3/8  SCALE   1.000 RED  0.40 PRED  0.30 NEXT  0.40 
:TRAVE:  Charge 5.75E-03 (e) CTO  5.59E-03 (e) PW  7.25E-03 (e)
:DIRP :  |MSR1|= 2.468E-03 |PRATT|= 6.793E-03 ANGLE=  19.5 DEGREES
:DIRQ :  |MSR1|= 5.688E-03 |PRATT|= 1.713E-02 ANGLE=  47.1 DEGREES
:DIRT :  |MSR1|= 6.200E-03 |PRATT|= 1.843E-02 ANGLE=  44.1 DEGREES
:MIX  :   MSE1   REGULARIZATION:  1.78E-04 GREED: 0.14183  Newton 1.00  0.3364                
     
       CHARGES OF MIXED CHARGE DENSITY
:CTO   : INTERSTITIAL CHARGE =     7.554749
:CPC   : PW Pseudocharge     =    14.396432
:CTO001: CHARGE SPHERE  1    =    24.645391
:CTO002: CHARGE SPHERE  2    =    31.577234

:NEC03: NUCLEAR AND ELECTRONIC CHARGE    120.00000   120.00000

PW CHANGE     H    K    L      Current       Change    Residue
:PTO001:      0    0    0  4.13954362E-02  1.151E-05  4.765E-05
:PTO002:      0    0   -1  2.86068688E-02 -4.477E-06  4.291E-06
:PTO004:     -1    0   -1 -9.13290449E-02 -2.806E-05 -1.089E-04
:PTO005:      0    0   -2 -9.65419268E-03 -9.947E-06 -3.641E-05
:PTO006:     -1   -1    0 -2.18563757E-02 -3.848E-05 -1.054E-04
:PTO007:     -1   -1   -1  8.24624061E-03 -5.156E-05 -1.180E-04
:PTO008:     -1    0   -2 -1.71518509E-02 -2.410E-05 -5.593E-05
:PTO009:     -1   -1   -2  2.72973667E-02 -4.809E-07  1.158E-05
:PTO010:     -2    0    0 -1.28378726E-02  7.476E-06  7.427E-06
:PTO011:      0    0   -3 -2.38893559E-03 -1.283E-06 -1.107E-05
:PTO012:     -2    0   -1 -2.38344842E-03 -1.133E-05 -1.584E-05
:PTO014:     -1    0   -3  8.62731638E-03 -2.089E-08  1.741E-05

:ENE  : ********** TOTAL ENERGY IN Ry =       -14810.25870589

       TOTAL FORCE IN mRy/a.u. = |F|     Fx             Fy             Fz     with/without FOR in case.in2
:FOR001:   1.ATOM          0.000          0.000          0.000          0.000 partial forces
:FOR002:   2.ATOM        489.747          0.000          0.000        489.747 partial forces
       TOTAL FORCE WITH RESPECT TO GLOBAL CARTESIAN COORDINATES:
:FCA001:   1.ATOM                         0.000          0.000          0.000 partial forces
:FCA002:   2.ATOM                         0.000          0.000        489.747 partial forces
       TOTAL FORCE WITH RESPECT TO THE GLOBAL COORDINATE SYSTEM:
:FGL001:   1.ATOM                 0.000000000     0.000000000     0.000000000 partial forces
:FGL002:   2.ATOM                 0.000000000     0.000000000   489.746827578 partial forces

------- case.scf0 --------
 Flat Integration
 New Mode for Coulomb Integral
 Consistent 3/8+Simpson combinations
 Extension of core to zero
 LDM version in phi
 Fifth-order quadrature in outwin


            ---------
:ITE006:  6. ITERATION
            ---------

:NATO :    2 INDEPENDENT AND    4 TOTAL ATOMS IN UNITCELL
       SUBSTANCE: FeSe                                                        

       LATTICE                      = P   
:POT  : POTENTIAL OPTION EX_LDA EC_LDA VX_LDA VC_LDA
:LAT  : LATTICE CONSTANTS=  7.12881  7.12881 10.43450    1.571    1.571    1.571
:VOL  : UNIT CELL VOLUME =     530.28024
       MODE OF CALCULATION IS       = RELA
       NON-SPINPOLARIZED CALCULATION
:IFFT  : FFT-parameters:   60   60   80 Factor: 2.00


   CONVERGENCE PARAMETER FOR PSEUDOCHARGE: NCON=  9
   MAXIMAL VALUE OF RMT(JATOM)*ABSK(NKK) : RK  =25.91023


:VKCOUL :  VK-COUL convergence: 0.208E-06
       ATOMNUMBER=  1 Fe         VCOUL-ZERO =  0.15715E+00
:EFG001:                        EFG         =     1.12535   *10**21  V / m**2
                               V20  TOT/SRF=     0.97458    -0.12738
                               V22  TOT/SRF=     0.00000     0.00000
                               V22M TOT/SRF=     0.00000     0.00000
                               V21  TOT/SRF=     0.00000     0.00000
                               V21M TOT/SRF=     0.00000     0.00000

             -0.56267    0.00000    0.00000       -0.56267    0.00000    0.00000
              0.00000   -0.56267    0.00000        0.00000   -0.56267    0.00000
              0.00000    0.00000    1.12535        0.00000    0.00000    1.12535

         MAIN DIRECTIONS OF THE EFG   1.0000  0.0000  0.0000
                                      0.0000  1.0000  0.0000
                                      0.0000  0.0000  1.0000
:ANG001:  ANGLE WITH OLD X-AXIS =         0.0

:ETA001:                         ASYMM. ETA =     0.00000


       ATOMNUMBER=  2 Se         VCOUL-ZERO =  0.34787E-01
:EFG002:                        EFG         =    -5.22616   *10**21  V / m**2
                               V20  TOT/SRF=    -4.52599    -0.05017
                               V22  TOT/SRF=     0.00000     0.00000
                               V22M TOT/SRF=     0.00000     0.00000
                               V21  TOT/SRF=     0.00000     0.00000
                               V21M TOT/SRF=     0.00000     0.00000

              2.61308    0.00000    0.00000        2.61308    0.00000    0.00000
              0.00000    2.61308    0.00000        0.00000    2.61308    0.00000
              0.00000    0.00000   -5.22616        0.00000    0.00000   -5.22616

         MAIN DIRECTIONS OF THE EFG   1.0000  0.0000  0.0000
                                      0.0000  1.0000  0.0000
                                      0.0000  0.0000  1.0000
:ANG002:  ANGLE WITH OLD X-AXIS =         0.0

:ETA002:                         ASYMM. ETA =     0.00000


     HELLMANN-FEYNMAN-FORCE IN mRy/a.u. = |F|  Fx       Fy             Fz
:FHF001:   1.ATOM      0.000000000000      0.000000000000      0.000000000000      0.000000000000

     HELLMANN-FEYNMAN-FORCE IN mRy/a.u. = |F|  Fx       Fy             Fz
:FHF002:   2.ATOM   1767.183707541984      0.000000000000      0.000000000000   1767.183707541984

:FIT001: LUSE= 13 SIGMA OF V-XC FIT FOR ATOM  1  0.3000556E-02
:FIT001: LUSE= 13 SIGMA OF V-XC FIT FOR ATOM  1  0.3000556E-02
:FIT002: LUSE= 13 SIGMA OF V-XC FIT FOR ATOM  2  0.5112942E-03
:FIT002: LUSE= 13 SIGMA OF V-XC FIT FOR ATOM  2  0.5112942E-03
:DEN  : DENSITY INTEGRAL  =         -6213.66327169   (Ry)
       ELS_POTENTIAL_AT Z=0 and Z=0.5:  -0.85911   0.74427
       ELS_POTENTIAL_AT Y=0 and Y=0.5:   0.00000   0.00000
:VZERO:v0,v0c,v0x  -1.71531  -0.85911  -0.85620 v5,v5c,v5x   0.31924   0.74427  -0.42502
:VZERY:v0,v0c,v0x  -0.70004   0.00000  -0.70004 v5,v5c,v5x  -0.70004   0.00000  -0.70004
:VZERX:v0,v0c,v0x   0.12675   0.79614  -0.66939 v5,v5c,v5x   0.12675   0.79614  -0.66939

------- case.scf1 --------
:LMAX-WF:   10   Non-Spherical LMAX:   4

          ATOMIC SPHERE DEPENDENT PARAMETERS FOR ATOM  Fe        
:e__0001: OVERALL ENERGY PARAMETER IS    0.1818
          OVERALL BASIS SET ON ATOM IS LAPW
:E1_0001: E( 1)=    0.1818
             APW+lo
:E1_0001: E( 1)=   -3.6069   E(BOTTOM)=   -3.697   E(TOP)=   -3.517  1  2   129
             LOCAL ORBITAL
:E2_0001: E( 2)=    0.1837   E(BOTTOM)=   -0.170   E(TOP)=    0.537  0  1   137
             APW+lo
:E0_0001: E( 0)=    0.1818
             APW+lo

          ATOMIC SPHERE DEPENDENT PARAMETERS FOR ATOM  Se        
:e__0002: OVERALL ENERGY PARAMETER IS    0.1818
          OVERALL BASIS SET ON ATOM IS LAPW
:E2_0002: E( 2)=    0.1818
             APW+lo
:E2_0002: E( 2)=   -3.1506   E(BOTTOM)=   -3.195   E(TOP)=   -3.106  0  1   142
             LOCAL ORBITAL
:E0_0002: E( 0)=    0.5818
             APW+lo
:E0_0002: E( 0)=   -1.0200   E(BOTTOM)=   -1.649   E(TOP)= -200.000  3 -1   183
             LOCAL ORBITAL
:E1_0002: E( 1)=    0.1818
             APW+lo

       K=   0.00000   0.00000   0.00000            1
:RKM  : MATRIX SIZE   575LOs:  54  RKM= 7.85  WEIGHT= 1.00  PGR:    
       EIGENVALUES ARE:
:EIG00001:      -3.5984874   -3.5984874   -3.5892885   -3.5892885   -3.5761336
:EIG00006:      -3.5741923   -3.1414123   -3.1409844   -3.1401023   -3.1400949
:EIG00011:      -3.1395169   -3.1395169   -3.1393574   -3.1393574   -3.1383603
:EIG00016:      -3.1383519   -0.7234205   -0.6182212   -0.0492294    0.0057230
:EIG00021:       0.0172608    0.0172608    0.0773107    0.0823988    0.0823988
:EIG00026:       0.2437850    0.2623193    0.3011033    0.3048975    0.3048975
:EIG00031:       0.3193889    0.5199561    0.5432267    0.5432267    0.6091673
:EIG00036:       0.6873670    0.7699386    0.9073196    0.9569765    0.9569765
:EIG00041:       1.2209269    1.2893179    1.2893179    1.3629519    1.3694728
:EIG00046:       1.3877102    1.4064658    1.4066780    1.4595489    1.4595489
 
:EIG00051:       1.6700655    1.6700655    1.6798175    1.7170906
       ********************************************************

:KPT   :      NUMBER OF K-POINTS:    84

------- case.scf2 --------
:GMA  : POTENTIAL AND CHARGE CUT-OFF  12.00 Ry**.5




:POS001: at.nr.  -1 position = 0.25000 0.75000 0.00000  multiplicity =  2

       lmmax  8
       lm=   0 0  2 0 -3 2  4 0  4 4 -5 2  6 0  6 4




:POS002: at.nr.  -2 position = 0.25000 0.75000 0.00000  multiplicity =  2

       lmmax 10
       lm=   0 0  1 0  2 0  3 0  4 0  4 4  5 0  5 4  6 0  6 4
:FER gutzwiller fermi energy   0.43923
:EORB        -22.045746994
:SUM sum of gutz band energies       -102.927610116

:CHA001: total charge inside sphere   1 =    12.647486
:PCS001: partial charges sphere =  1 s,p,d,f,pz,pxy,,d-z2,d-xy,d-x2y2,d-xz,yz 
:QTL001: 0.3172 6.3330 5.9641 0.0268 2.0842 4.2487 0.0000 1.3143 1.2442 1.0887 2.3169 0.0000
:VZZ001: efg inside sphere   1 =     1.222764      up to r =   2.16000

:CHA002: total charge inside sphere   2 =    13.576250
:PCS002: partial charges sphere =  2 s,p,d,f,pz,pxy,,d-z2,d-xy,d-x2y2,d-xz,yz 
:QTL002: 1.3441 2.147110.0645 0.0167 0.7292 1.4180 0.0000 2.0112 2.0148 2.0125 4.0259 0.0000
:VZZ002: efg inside sphere   2 =    -5.059601      up to r =   2.05000

:CHA  : total charge inside unit cell =      60.000000

------- case.scfc --------

        1.ATOM      Fe                    5 CORE STATES
:1S 001: 1S                -512.335778694 Ry
:2S 001: 2S                 -59.283118153 Ry
:2PP001: 2P*                -51.083545284 Ry
:2P 001: 2P                 -50.168476444 Ry
:3S 001: 3S                  -6.050874622 Ry

        2.ATOM      Se                    7 CORE STATES
       CORE-FORCE in mRy/a.u. = |F|      Fx             Fy             Fz
:FCO002:   2.ATOM   1275.022392710303      0.000000000000      0.000000000000  -1275.022392710303

:1S 002: 1S                -916.440819414 Ry
:2S 002: 2S                -117.104814286 Ry
:2PP002: 2P*               -105.079386437 Ry
:2P 002: 2P                -102.016225623 Ry
:3S 002: 3S                 -14.840139365 Ry
:3PP002: 3P*                -10.727442150 Ry
:3P 002: 3P                 -10.295128199 Ry

------- case.scfm --------
:CINT001 Core Integral Atom   1   11.997185
:CINT002 Core Integral Atom   2   17.999400

       DENSITY AT NUCLEUS
        JATOM        VALENCE       SEMI-CORE          CORE           TOTAL
:RTO001:   1        7.004867        0.000000    14798.147543    14805.152410
:RTO002:   2       54.874010        0.000000    38924.517061    38979.391071
     
       CHARGES OF NEW CHARGE DENSITY
:NTO   : INTERSTITIAL CHARGE =     7.552740
:NPC   : PW Pseudocharge     =    14.384869
:NTO001: CHARGE SPHERE  1    =    24.644671
:NTO002: CHARGE SPHERE  2    =    31.575651

:NEC01: NUCLEAR AND ELECTRONIC CHARGE    120.00000   119.99338
     
       CHARGES OF OLD CHARGE DENSITY
:OTO   : INTERSTITIAL CHARGE =     7.554749
:OPC   : PW Pseudocharge     =    14.396432
:OTO001: CHARGE SPHERE  1    =    24.645391
:OTO002: CHARGE SPHERE  2    =    31.577234

:NEC02: NUCLEAR AND ELECTRONIC CHARGE    120.00000   120.00000
     
       CONVERGENCE TEST
:DTO001: DIFFERENCE IN SPHERE  1 =  0.0021533
:DTO002: DIFFERENCE IN SPHERE  2 =  0.0012817

:DIS  :  CHARGE DISTANCE       ( 0.0021533 for atom    1 spin 1)      0.0017175
 PW Mixed is          365
 
******************************************************
* MULTISECANT MIXING VER9 RELEASE 10.4.0              *
* Standard Mode with controls                        *
* Fixed density scale                                *
* Regularization       1.000E-04                     *
* Trust Upper Limit    5.000E+00                     *
* Max Number of Memory Steps    8                    *
******************************************************
 
:PWTMP   3.7368E+02  3.2249E+02  5.3028E+02
:PLANE:  PW TOTAL      3.8140 DISTAN   2.69E-03  7.06E-02 %
:CHARG:  CLM/ATOM    303.3497 DISTAN   2.57E-03  8.48E-04 %
 
Step History
        DMIX         DMIXT        Red     Pred      Trust     Lambda    MagRel    MagAbs     Beta
  1   3.5000E-02   3.5000E-02 -1.00E+00  1.00E+00 -1.00E+01  1.00E+00  3.50E-02  3.50E-02  1.00E+00
  2   1.5000E-01   1.5000E-01  3.82E-01  1.00E+00 -1.00E+01  1.00E+00  1.50E-01  2.27E-02  1.00E+00
  3   7.1250E-02   7.1250E-02  7.96E-01  8.76E-01  3.00E+00  1.69E+00  1.56E-01  9.03E-03  1.00E+00
  4   1.7813E-01   1.7813E-01  4.01E-01  3.01E-01  1.90E+00  1.89E+00  7.21E-01  3.31E-02  1.00E+00
  5   1.4183E-01   1.4183E-01 -1.00E+00  3.97E-01  2.54E+00  1.00E+00  3.36E-01  6.20E-03  1.00E+00
:JACOBIANS    2.411E-01   8.829E-01
  
:NORMS:  1/Froebius, Min, Max, Used   0.5513E+00  0.4114E+00  0.8022E+00  0.6125E+00
:INFO :  Number of Memory Steps    4 Skipping    0
:INFO :  SLambda=    1.9645143921  Max    1.9645143921
:PREDicted Charge, CTotal, PW Trust    6.225E-03   9.076E-03   6.492E-03
:PREDicted DMix, Beta, BLim   4.5445E-01  1.3627E+00  2.8120E+00

Eigenvalues, unscaled except for SY+YY
   #     SY Real        SY Imag          SS             YY         SY+YY Real      SY+YY Imag
   1   1.009770E+00   0.000000E+00   1.084559E+00   2.891299E+00   4.698988E+00   0.000000E+00
   2   5.423269E-01   0.000000E+00   1.296251E-01   1.102755E+00   2.343916E+00   0.000000E+00
   3   2.912280E-03   0.000000E+00   1.731729E-03   5.785881E-03   1.177315E-02   0.000000E+00
   4   2.756362E-05   0.000000E+00   4.772038E-06   1.601682E-04   2.145248E-04   0.000000E+00
 
:INFO :  Singular value  4.907E+00 Weight  1.000E+00 Projection -3.440E-05
:INFO :  Singular value  2.245E+00 Weight  1.000E+00 Projection  1.043E-03
:INFO :  Singular value  1.177E-02 Weight  9.994E-01 Projection  7.021E-02
:INFO :  Singular value  2.145E-04 Weight  3.550E-01 Projection -1.082E-02
:RANK :  ACTIVE   3.35/4  =  83.86 % ; YY RANK   3.23/4  =  80.81 %
 
:BLIM :  VZERO Control Off
:TRUST:  Step 3.38E+00  Charge 6.00E-02 (e) CTO  2.00E-01 (e) PW  2.80E-01 (e)
:DIRM :  MEMORY  4/8  SCALE   1.000 RED  0.31 PRED  0.40 NEXT  0.62 
:TRAVE:  Charge 3.70E-03 (e) CTO  4.76E-03 (e) PW  5.03E-03 (e)
:DIRP :  |MSR1|= 1.864E-03 |PRATT|= 2.691E-03 ANGLE=  13.9 DEGREES
:DIRQ :  |MSR1|= 3.329E-03 |PRATT|= 5.142E-03 ANGLE=  26.9 DEGREES
:DIRT :  |MSR1|= 3.815E-03 |PRATT|= 5.804E-03 ANGLE=  24.5 DEGREES
:MIX  :   MSE1   REGULARIZATION:  2.89E-04 GREED: 0.29519  Newton 1.00  0.6573                
     
       CHARGES OF MIXED CHARGE DENSITY
:CTO   : INTERSTITIAL CHARGE =     7.558685
:CPC   : PW Pseudocharge     =    14.397111
:CTO001: CHARGE SPHERE  1    =    24.643748
:CTO002: CHARGE SPHERE  2    =    31.576909

:NEC03: NUCLEAR AND ELECTRONIC CHARGE    120.00000   120.00000

PW CHANGE     H    K    L      Current       Change    Residue
:PTO001:      0    0    0  4.14041374E-02  8.701E-06  1.064E-05
:PTO002:      0    0   -1  2.86180836E-02  1.121E-05  2.461E-05
:PTO004:     -1    0   -1 -9.13251919E-02  3.853E-06  1.465E-05
:PTO005:      0    0   -2 -9.65664491E-03 -2.452E-06 -5.683E-07
:PTO006:     -1   -1    0 -2.18786724E-02 -2.230E-05 -2.608E-05
:PTO007:     -1   -1   -1  8.20385877E-03 -4.238E-05 -6.002E-05
:PTO008:     -1    0   -2 -1.71716066E-02 -1.976E-05 -3.354E-05
:PTO009:     -1   -1   -2  2.72972075E-02 -1.592E-07 -1.456E-06
:PTO010:     -2    0    0 -1.28248794E-02  1.299E-05  1.807E-05
:PTO011:      0    0   -3 -2.39448579E-03 -5.550E-06 -1.019E-05
:PTO012:     -2    0   -1 -2.38355174E-03 -1.033E-07  2.508E-06
:PTO014:     -1    0   -3  8.63588256E-03  8.566E-06  1.543E-05

:ENE  : ********** TOTAL ENERGY IN Ry =       -14810.25894455

       TOTAL FORCE IN mRy/a.u. = |F|     Fx             Fy             Fz     with/without FOR in case.in2
:FOR001:   1.ATOM          0.000          0.000          0.000          0.000 partial forces
:FOR002:   2.ATOM        492.161          0.000          0.000        492.161 partial forces
       TOTAL FORCE WITH RESPECT TO GLOBAL CARTESIAN COORDINATES:
:FCA001:   1.ATOM                         0.000          0.000          0.000 partial forces
:FCA002:   2.ATOM                         0.000          0.000        492.161 partial forces
       TOTAL FORCE WITH RESPECT TO THE GLOBAL COORDINATE SYSTEM:
:FGL001:   1.ATOM                 0.000000000     0.000000000     0.000000000 partial forces
:FGL002:   2.ATOM                 0.000000000     0.000000000   492.161314832 partial forces

------- case.scf0 --------
 Flat Integration
 New Mode for Coulomb Integral
 Consistent 3/8+Simpson combinations
 Extension of core to zero
 LDM version in phi
 Fifth-order quadrature in outwin


            ---------
:ITE007:  7. ITERATION
            ---------

:NATO :    2 INDEPENDENT AND    4 TOTAL ATOMS IN UNITCELL
       SUBSTANCE: FeSe                                                        

       LATTICE                      = P   
:POT  : POTENTIAL OPTION EX_LDA EC_LDA VX_LDA VC_LDA
:LAT  : LATTICE CONSTANTS=  7.12881  7.12881 10.43450    1.571    1.571    1.571
:VOL  : UNIT CELL VOLUME =     530.28024
       MODE OF CALCULATION IS       = RELA
       NON-SPINPOLARIZED CALCULATION
:IFFT  : FFT-parameters:   60   60   80 Factor: 2.00


   CONVERGENCE PARAMETER FOR PSEUDOCHARGE: NCON=  9
   MAXIMAL VALUE OF RMT(JATOM)*ABSK(NKK) : RK  =25.91023


:VKCOUL :  VK-COUL convergence: 0.208E-06
       ATOMNUMBER=  1 Fe         VCOUL-ZERO =  0.15732E+00
:EFG001:                        EFG         =     1.08499   *10**21  V / m**2
                               V20  TOT/SRF=     0.93963    -0.12639
                               V22  TOT/SRF=     0.00000     0.00000
                               V22M TOT/SRF=     0.00000     0.00000
                               V21  TOT/SRF=     0.00000     0.00000
                               V21M TOT/SRF=     0.00000     0.00000

             -0.54249    0.00000    0.00000       -0.54249    0.00000    0.00000
              0.00000   -0.54249    0.00000        0.00000   -0.54249    0.00000
              0.00000    0.00000    1.08499        0.00000    0.00000    1.08499

         MAIN DIRECTIONS OF THE EFG   1.0000  0.0000  0.0000
                                      0.0000  1.0000  0.0000
                                      0.0000  0.0000  1.0000
:ANG001:  ANGLE WITH OLD X-AXIS =         0.0

:ETA001:                         ASYMM. ETA =     0.00000


       ATOMNUMBER=  2 Se         VCOUL-ZERO =  0.34802E-01
:EFG002:                        EFG         =    -5.16208   *10**21  V / m**2
                               V20  TOT/SRF=    -4.47050    -0.05004
                               V22  TOT/SRF=     0.00000     0.00000
                               V22M TOT/SRF=     0.00000     0.00000
                               V21  TOT/SRF=     0.00000     0.00000
                               V21M TOT/SRF=     0.00000     0.00000

              2.58104    0.00000    0.00000        2.58104    0.00000    0.00000
              0.00000    2.58104    0.00000        0.00000    2.58104    0.00000
              0.00000    0.00000   -5.16208        0.00000    0.00000   -5.16208

         MAIN DIRECTIONS OF THE EFG   1.0000  0.0000  0.0000
                                      0.0000  1.0000  0.0000
                                      0.0000  0.0000  1.0000
:ANG002:  ANGLE WITH OLD X-AXIS =         0.0

:ETA002:                         ASYMM. ETA =     0.00000


     HELLMANN-FEYNMAN-FORCE IN mRy/a.u. = |F|  Fx       Fy             Fz
:FHF001:   1.ATOM      0.000000000000      0.000000000000      0.000000000000      0.000000000000

     HELLMANN-FEYNMAN-FORCE IN mRy/a.u. = |F|  Fx       Fy             Fz
:FHF002:   2.ATOM   1739.738569130306      0.000000000000      0.000000000000   1739.738569130306

:FIT001: LUSE= 13 SIGMA OF V-XC FIT FOR ATOM  1  0.3003253E-02
:FIT001: LUSE= 13 SIGMA OF V-XC FIT FOR ATOM  1  0.3003253E-02
:FIT002: LUSE= 13 SIGMA OF V-XC FIT FOR ATOM  2  0.5101346E-03
:FIT002: LUSE= 13 SIGMA OF V-XC FIT FOR ATOM  2  0.5101346E-03
:DEN  : DENSITY INTEGRAL  =         -6213.62090808   (Ry)
       ELS_POTENTIAL_AT Z=0 and Z=0.5:  -0.85909   0.74415
       ELS_POTENTIAL_AT Y=0 and Y=0.5:   0.00000   0.00000
:VZERO:v0,v0c,v0x  -1.71537  -0.85909  -0.85628 v5,v5c,v5x   0.31904   0.74415  -0.42511
:VZERY:v0,v0c,v0x  -0.70013   0.00000  -0.70013 v5,v5c,v5x  -0.70013   0.00000  -0.70013
:VZERX:v0,v0c,v0x   0.12690   0.79642  -0.66952 v5,v5c,v5x   0.12690   0.79642  -0.66952

------- case.scf1 --------
:LMAX-WF:   10   Non-Spherical LMAX:   4

          ATOMIC SPHERE DEPENDENT PARAMETERS FOR ATOM  Fe        
:e__0001: OVERALL ENERGY PARAMETER IS    0.1818
          OVERALL BASIS SET ON ATOM IS LAPW
:E1_0001: E( 1)=    0.1818
             APW+lo
:E1_0001: E( 1)=   -3.6073   E(BOTTOM)=   -3.698   E(TOP)=   -3.517  1  2   135
             LOCAL ORBITAL
:E2_0001: E( 2)=    0.1834   E(BOTTOM)=   -0.170   E(TOP)=    0.537  0  1   136
             APW+lo
:E0_0001: E( 0)=    0.1818
             APW+lo

          ATOMIC SPHERE DEPENDENT PARAMETERS FOR ATOM  Se        
:e__0002: OVERALL ENERGY PARAMETER IS    0.1818
          OVERALL BASIS SET ON ATOM IS LAPW
:E2_0002: E( 2)=    0.1818
             APW+lo
:E2_0002: E( 2)=   -3.1510   E(BOTTOM)=   -3.196   E(TOP)=   -3.106  0  1   145
             LOCAL ORBITAL
:E0_0002: E( 0)=    0.5818
             APW+lo
:E0_0002: E( 0)=   -1.0200   E(BOTTOM)=   -1.649   E(TOP)= -200.000  3 -1   183
             LOCAL ORBITAL
:E1_0002: E( 1)=    0.1818
             APW+lo

       K=   0.00000   0.00000   0.00000            1
:RKM  : MATRIX SIZE   575LOs:  54  RKM= 7.85  WEIGHT= 1.00  PGR:    
       EIGENVALUES ARE:
:EIG00001:      -3.5988668   -3.5988668   -3.5896714   -3.5896714   -3.5765193
:EIG00006:      -3.5745788   -3.1418029   -3.1413752   -3.1404879   -3.1404804
:EIG00011:      -3.1399355   -3.1399355   -3.1397762   -3.1397762   -3.1387885
:EIG00016:      -3.1387801   -0.7233951   -0.6182607   -0.0493564    0.0056255
:EIG00021:       0.0171044    0.0171044    0.0771160    0.0823210    0.0823210
:EIG00026:       0.2434629    0.2620214    0.3007632    0.3046910    0.3046910
:EIG00031:       0.3190614    0.5197398    0.5430102    0.5430102    0.6092091
:EIG00036:       0.6873512    0.7698626    0.9072449    0.9569285    0.9569285
:EIG00041:       1.2209412    1.2894506    1.2894506    1.3628421    1.3694458
:EIG00046:       1.3877862    1.4065136    1.4065534    1.4595076    1.4595076
 
:EIG00051:       1.6699588    1.6699588    1.6799241    1.7170281
       ********************************************************

:KPT   :      NUMBER OF K-POINTS:    84

------- case.scf2 --------
:GMA  : POTENTIAL AND CHARGE CUT-OFF  12.00 Ry**.5




:POS001: at.nr.  -1 position = 0.25000 0.75000 0.00000  multiplicity =  2

       lmmax  8
       lm=   0 0  2 0 -3 2  4 0  4 4 -5 2  6 0  6 4




:POS002: at.nr.  -2 position = 0.25000 0.75000 0.00000  multiplicity =  2

       lmmax 10
       lm=   0 0  1 0  2 0  3 0  4 0  4 4  5 0  5 4  6 0  6 4
:FER gutzwiller fermi energy   0.43910
:EORB        -22.048220021
:SUM sum of gutz band energies       -102.941884756

:CHA001: total charge inside sphere   1 =    12.647979
:PCS001: partial charges sphere =  1 s,p,d,f,pz,pxy,,d-z2,d-xy,d-x2y2,d-xz,yz 
:QTL001: 0.3172 6.3329 5.9647 0.0268 2.0842 4.2487 0.0000 1.3150 1.2441 1.0891 2.3166 0.0000
:VZZ001: efg inside sphere   1 =     1.224119      up to r =   2.16000

:CHA002: total charge inside sphere   2 =    13.576485
:PCS002: partial charges sphere =  2 s,p,d,f,pz,pxy,,d-z2,d-xy,d-x2y2,d-xz,yz 
:QTL002: 1.3441 2.147410.0644 0.0167 0.7293 1.4181 0.0000 2.0112 2.0148 2.0125 4.0259 0.0000
:VZZ002: efg inside sphere   2 =    -5.082645      up to r =   2.05000

:CHA  : total charge inside unit cell =      60.000000

------- case.scfc --------

        1.ATOM      Fe                    5 CORE STATES
:1S 001: 1S                -512.336287678 Ry
:2S 001: 2S                 -59.283477324 Ry
:2PP001: 2P*                -51.083923459 Ry
:2P 001: 2P                 -50.168853070 Ry
:3S 001: 3S                  -6.051269395 Ry

        2.ATOM      Se                    7 CORE STATES
       CORE-FORCE in mRy/a.u. = |F|      Fx             Fy             Fz
:FCO002:   2.ATOM   1259.751030360337      0.000000000000      0.000000000000  -1259.751030360337

:1S 002: 1S                -916.441286699 Ry
:2S 002: 2S                -117.105272402 Ry
:2PP002: 2P*               -105.079843702 Ry
:2P 002: 2P                -102.016682904 Ry
:3S 002: 3S                 -14.840570988 Ry
:3PP002: 3P*                -10.727869710 Ry
:3P 002: 3P                 -10.295553283 Ry

------- case.scfm --------
:CINT001 Core Integral Atom   1   11.997186
:CINT002 Core Integral Atom   2   17.999401

       DENSITY AT NUCLEUS
        JATOM        VALENCE       SEMI-CORE          CORE           TOTAL
:RTO001:   1        7.005184        0.000000    14798.149907    14805.155091
:RTO002:   2       54.877850        0.000000    38924.519642    38979.397492
     
       CHARGES OF NEW CHARGE DENSITY
:NTO   : INTERSTITIAL CHARGE =     7.551219
:NPC   : PW Pseudocharge     =    14.384753
:NTO001: CHARGE SPHERE  1    =    24.645165
:NTO002: CHARGE SPHERE  2    =    31.575885

:NEC01: NUCLEAR AND ELECTRONIC CHARGE    120.00000   119.99332
     
       CHARGES OF OLD CHARGE DENSITY
:OTO   : INTERSTITIAL CHARGE =     7.558685
:OPC   : PW Pseudocharge     =    14.397111
:OTO001: CHARGE SPHERE  1    =    24.643748
:OTO002: CHARGE SPHERE  2    =    31.576909

:NEC02: NUCLEAR AND ELECTRONIC CHARGE    120.00000   120.00000
     
       CONVERGENCE TEST
:DTO001: DIFFERENCE IN SPHERE  1 =  0.0021134
:DTO002: DIFFERENCE IN SPHERE  2 =  0.0007188

:DIS  :  CHARGE DISTANCE       ( 0.0021134 for atom    1 spin 1)      0.0014161
 PW Mixed is          365
 
******************************************************
* MULTISECANT MIXING VER9 RELEASE 10.4.0              *
* Standard Mode with controls                        *
* Fixed density scale                                *
* Regularization       1.000E-04                     *
* Trust Upper Limit    5.000E+00                     *
* Max Number of Memory Steps    8                    *
******************************************************
 
:PWTMP   3.7368E+02  3.2249E+02  5.3028E+02
:PLANE:  PW TOTAL      3.8146 DISTAN   7.30E-04  1.91E-02 %
:CHARG:  CLM/ATOM    303.3496 DISTAN   1.79E-03  5.89E-04 %
 
Step History
        DMIX         DMIXT        Red     Pred      Trust     Lambda    MagRel    MagAbs     Beta
  1   3.5000E-02   3.5000E-02 -1.00E+00  1.00E+00 -1.00E+01  1.00E+00  3.50E-02  3.50E-02  1.00E+00
  2   1.5000E-01   1.5000E-01  3.82E-01  1.00E+00 -1.00E+01  1.00E+00  1.50E-01  2.27E-02  1.00E+00
  3   7.1250E-02   7.1250E-02  7.96E-01  8.76E-01  3.00E+00  1.69E+00  1.56E-01  9.03E-03  1.00E+00
  4   1.7813E-01   1.7813E-01  4.01E-01  3.01E-01  1.90E+00  1.89E+00  7.21E-01  3.31E-02  1.00E+00
  5   1.4183E-01   1.4183E-01  3.15E-01  3.97E-01  2.54E+00  1.96E+00  3.36E-01  6.20E-03  1.00E+00
  6   2.9519E-01   2.9519E-01 -1.00E+00  6.23E-01  3.38E+00  1.00E+00  6.57E-01  3.82E-03  1.00E+00
:JACOBIANS    3.243E-01   1.145E+00
  
:NORMS:  1/Froebius, Min, Max, Used   0.6169E+00  0.3993E+00  0.7064E+00  0.6756E+00
:INFO :  Number of Memory Steps    5 Skipping    0
:INFO :  SLambda=    1.7575224822  Max    1.7575224822
:PREDicted Charge, CTotal, PW Trust    9.751E-04   3.708E-03   3.002E-03
:PREDicted DMix, Beta, BLim   1.8617E-01  8.8354E-01  4.1431E+00

Eigenvalues, unscaled except for SY+YY
   #     SY Real        SY Imag          SS             YY         SY+YY Real      SY+YY Imag
   1   1.370613E+00   0.000000E+00   1.408056E+00   3.084441E+00   5.304985E+00   0.000000E+00
   2   4.879478E-01   0.000000E+00   4.013675E-01   1.037910E+00   2.008491E+00   0.000000E+00
   3   4.296024E-01   0.000000E+00   9.339719E-02   8.760523E-01   1.706459E+00   0.000000E+00
   4   3.864854E-04   0.000000E+00   1.488039E-04   1.451827E-03   2.094989E-03   0.000000E+00
   5   2.750191E-05   0.000000E+00   4.273581E-06   1.446870E-04   1.970248E-04   0.000000E+00
 
:INFO :  Singular value  5.431E+00 Weight  1.000E+00 Projection -7.841E-04
:INFO :  Singular value  2.005E+00 Weight  1.000E+00 Projection  7.657E-04
:INFO :  Singular value  1.669E+00 Weight  1.000E+00 Projection -1.672E-03
:INFO :  Singular value  2.097E-03 Weight  9.788E-01 Projection -6.005E-03
:INFO :  Singular value  1.969E-04 Weight  2.895E-01 Projection  3.108E-02
[...]

Eigenvalues, unscaled except for SY+YY
   #     SY Real        SY Imag          SS             YY         SY+YY Real      SY+YY Imag
   1   1.422775E+00   0.000000E+00   1.424737E+00   4.376727E+00   6.179501E+00   0.000000E+00
   2   5.025129E-01   0.000000E+00   4.241615E-01   1.670814E+00   2.924013E+00   0.000000E+00
   3   3.443453E-01   0.000000E+00   2.439152E-01   1.284743E+00   2.287560E+00   0.000000E+00
   4   2.777363E-01   0.000000E+00   1.358488E-01   9.803532E-01   2.049495E+00   0.000000E+00
   5   1.217329E-01   2.884914E-02   7.420723E-02   3.932139E-01   9.792020E-01   0.000000E+00
   6   1.217329E-01  -2.884914E-02   2.027821E-02   2.123610E-01   5.928468E-01   0.000000E+00
   7   1.886675E-02   0.000000E+00   1.784857E-03   7.725141E-02   1.364428E-01   0.000000E+00
   8   1.700324E-04   1.905413E-04   1.253580E-04   3.557991E-03   3.812806E-03   0.000000E+00
   9   1.700324E-04  -1.905413E-04   2.061860E-05   9.776224E-04   1.541061E-03   0.000000E+00
 
:INFO :  Singular value  6.297E+00 Weight  1.000E+00 Projection -5.982E-05
:INFO :  Singular value  2.967E+00 Weight  1.000E+00 Projection -8.995E-05
:INFO :  Singular value  2.328E+00 Weight  1.000E+00 Projection -1.728E-05
:INFO :  Singular value  2.016E+00 Weight  1.000E+00 Projection  6.338E-05
:INFO :  Singular value  9.682E-01 Weight  1.000E+00 Projection -5.927E-05
:INFO :  Singular value  5.912E-01 Weight  1.000E+00 Projection  8.846E-05
:INFO :  Singular value  1.352E-01 Weight  1.000E+00 Projection  3.884E-05
:INFO :  Singular value  3.862E-03 Weight  9.873E-01 Projection  8.140E-06
:INFO :  Singular value  1.505E-03 Weight  9.220E-01 Projection -2.260E-04
:RANK :  ACTIVE   8.91/9  =  98.99 % ; YY RANK   8.82/9  =  97.98 %
 
:BLIM :  VZERO Control Off
:TRUST:  Step 2.49E+00  Charge 5.32E-03 (e) CTO  1.77E-02 (e) PW  2.48E-02 (e)
:DIRM :  MEMORY  9/8  SCALE   1.000 RED  3.51 PRED  0.29 NEXT  0.06 
:TRAVE:  Charge 1.63E-05 (e) CTO  2.45E-05 (e) PW  2.68E-05 (e)
:DIRP :  |MSR1|= 3.248E-06 |PRATT|= 1.198E-04 ANGLE=  59.2 DEGREES
:DIRQ :  |MSR1|= 1.219E-05 |PRATT|= 2.214E-04 ANGLE=  60.2 DEGREES
:DIRT :  |MSR1|= 1.261E-05 |PRATT|= 2.518E-04 ANGLE=  61.0 DEGREES
:MIX  :   MSE1   REGULARIZATION:  4.38E-04 GREED: 0.08277  Newton 1.00  0.0501                
     
       CHARGES OF MIXED CHARGE DENSITY
:CTO   : INTERSTITIAL CHARGE =     7.558709
:CPC   : PW Pseudocharge     =    14.398700
:CTO001: CHARGE SPHERE  1    =    24.644080
:CTO002: CHARGE SPHERE  2    =    31.576566

:NEC03: NUCLEAR AND ELECTRONIC CHARGE    120.00000   120.00000

PW CHANGE     H    K    L      Current       Change    Residue
:PTO001:      0    0    0  4.14071794E-02  5.309E-09  1.306E-06
:PTO002:      0    0   -1  2.86185950E-02 -9.279E-10  8.281E-07
:PTO004:     -1    0   -1 -9.13458199E-02 -6.754E-08 -2.907E-06
:PTO005:      0    0   -2 -9.66386007E-03 -1.865E-08 -3.486E-07
:PTO006:     -1   -1    0 -2.18906259E-02 -4.801E-08 -7.221E-07
:PTO007:     -1   -1   -1  8.20060601E-03 -4.621E-08  2.592E-07
:PTO008:     -1    0   -2 -1.71736934E-02 -1.985E-08 -4.788E-07
:PTO009:     -1   -1   -2  2.73088797E-02  2.105E-08  8.455E-07
:PTO010:     -2    0    0 -1.28286672E-02 -8.627E-09 -3.958E-07
:PTO011:      0    0   -3 -2.39715527E-03 -1.290E-08 -6.596E-08
:PTO012:     -2    0   -1 -2.38003582E-03  9.223E-09 -3.529E-08
:PTO014:     -1    0   -3  8.64681319E-03  1.797E-08  2.896E-07

:ENE  : ********** TOTAL ENERGY IN Ry =       -14810.25895568

       TOTAL FORCE IN mRy/a.u. = |F|     Fx             Fy             Fz     with/without FOR in case.in2
:FOR001:   1.ATOM          0.000          0.000          0.000          0.000 partial forces
:FOR002:   2.ATOM        480.273          0.000          0.000        480.273 partial forces
       TOTAL FORCE WITH RESPECT TO GLOBAL CARTESIAN COORDINATES:
:FCA001:   1.ATOM                         0.000          0.000          0.000 partial forces
:FCA002:   2.ATOM                         0.000          0.000        480.273 partial forces
       TOTAL FORCE WITH RESPECT TO THE GLOBAL COORDINATE SYSTEM:
:FGL001:   1.ATOM                 0.000000000     0.000000000     0.000000000 partial forces
:FGL002:   2.ATOM                 0.000000000     0.000000000   480.272583645 partial forces

------- case.scf0 --------
 Flat Integration
 New Mode for Coulomb Integral
 Consistent 3/8+Simpson combinations
 Extension of core to zero
 LDM version in phi
 Fifth-order quadrature in outwin


            ---------
:ITE016: 16. ITERATION
            ---------

:NATO :    2 INDEPENDENT AND    4 TOTAL ATOMS IN UNITCELL
       SUBSTANCE: FeSe                                                        

       LATTICE                      = P   
:POT  : POTENTIAL OPTION EX_LDA EC_LDA VX_LDA VC_LDA
:LAT  : LATTICE CONSTANTS=  7.12881  7.12881 10.43450    1.571    1.571    1.571
:VOL  : UNIT CELL VOLUME =     530.28024
       MODE OF CALCULATION IS       = RELA
       NON-SPINPOLARIZED CALCULATION
:IFFT  : FFT-parameters:   60   60   80 Factor: 2.00


   CONVERGENCE PARAMETER FOR PSEUDOCHARGE: NCON=  9
   MAXIMAL VALUE OF RMT(JATOM)*ABSK(NKK) : RK  =25.91023


:VKCOUL :  VK-COUL convergence: 0.208E-06
       ATOMNUMBER=  1 Fe         VCOUL-ZERO =  0.15750E+00
:EFG001:                        EFG         =     1.06721   *10**21  V / m**2
                               V20  TOT/SRF=     0.92423    -0.12639
                               V22  TOT/SRF=     0.00000     0.00000
                               V22M TOT/SRF=     0.00000     0.00000
                               V21  TOT/SRF=     0.00000     0.00000
                               V21M TOT/SRF=     0.00000     0.00000

             -0.53360    0.00000    0.00000       -0.53360    0.00000    0.00000
              0.00000   -0.53360    0.00000        0.00000   -0.53360    0.00000
              0.00000    0.00000    1.06721        0.00000    0.00000    1.06721

         MAIN DIRECTIONS OF THE EFG   1.0000  0.0000  0.0000
                                      0.0000  1.0000  0.0000
                                      0.0000  0.0000  1.0000
:ANG001:  ANGLE WITH OLD X-AXIS =         0.0

:ETA001:                         ASYMM. ETA =     0.00000


       ATOMNUMBER=  2 Se         VCOUL-ZERO =  0.34759E-01
:EFG002:                        EFG         =    -5.16231   *10**21  V / m**2
                               V20  TOT/SRF=    -4.47070    -0.04987
                               V22  TOT/SRF=     0.00000     0.00000
                               V22M TOT/SRF=     0.00000     0.00000
                               V21  TOT/SRF=     0.00000     0.00000
                               V21M TOT/SRF=     0.00000     0.00000

              2.58116    0.00000    0.00000        2.58116    0.00000    0.00000
              0.00000    2.58116    0.00000        0.00000    2.58116    0.00000
              0.00000    0.00000   -5.16231        0.00000    0.00000   -5.16231

         MAIN DIRECTIONS OF THE EFG   1.0000  0.0000  0.0000
                                      0.0000  1.0000  0.0000
                                      0.0000  0.0000  1.0000
:ANG002:  ANGLE WITH OLD X-AXIS =         0.0

:ETA002:                         ASYMM. ETA =     0.00000


     HELLMANN-FEYNMAN-FORCE IN mRy/a.u. = |F|  Fx       Fy             Fz
:FHF001:   1.ATOM      0.000000000000      0.000000000000      0.000000000000      0.000000000000

     HELLMANN-FEYNMAN-FORCE IN mRy/a.u. = |F|  Fx       Fy             Fz
:FHF002:   2.ATOM   1743.371846967055      0.000000000000      0.000000000000   1743.371846967055

:FIT001: LUSE= 13 SIGMA OF V-XC FIT FOR ATOM  1  0.3003437E-02
:FIT001: LUSE= 13 SIGMA OF V-XC FIT FOR ATOM  1  0.3003437E-02
:FIT002: LUSE= 13 SIGMA OF V-XC FIT FOR ATOM  2  0.5104564E-03
:FIT002: LUSE= 13 SIGMA OF V-XC FIT FOR ATOM  2  0.5104564E-03
:DEN  : DENSITY INTEGRAL  =         -6213.63789999   (Ry)
       ELS_POTENTIAL_AT Z=0 and Z=0.5:  -0.85879   0.74400
       ELS_POTENTIAL_AT Y=0 and Y=0.5:   0.00000   0.00000
:VZERO:v0,v0c,v0x  -1.71505  -0.85879  -0.85626 v5,v5c,v5x   0.31891   0.74400  -0.42509
:VZERY:v0,v0c,v0x  -0.70013   0.00000  -0.70013 v5,v5c,v5x  -0.70013   0.00000  -0.70013
:VZERX:v0,v0c,v0x   0.12694   0.79645  -0.66951 v5,v5c,v5x   0.12694   0.79645  -0.66951

------- case.scf1 --------
:LMAX-WF:   10   Non-Spherical LMAX:   4

          ATOMIC SPHERE DEPENDENT PARAMETERS FOR ATOM  Fe        
:e__0001: OVERALL ENERGY PARAMETER IS    0.1818
          OVERALL BASIS SET ON ATOM IS LAPW
:E1_0001: E( 1)=    0.1818
             APW+lo
:E1_0001: E( 1)=   -3.6068   E(BOTTOM)=   -3.697   E(TOP)=   -3.516  1  2   131
             LOCAL ORBITAL
:E2_0001: E( 2)=    0.1838   E(BOTTOM)=   -0.170   E(TOP)=    0.537  0  1   138
             APW+lo
:E0_0001: E( 0)=    0.1818
             APW+lo

          ATOMIC SPHERE DEPENDENT PARAMETERS FOR ATOM  Se        
:e__0002: OVERALL ENERGY PARAMETER IS    0.1818
          OVERALL BASIS SET ON ATOM IS LAPW
:E2_0002: E( 2)=    0.1818
             APW+lo
:E2_0002: E( 2)=   -3.1512   E(BOTTOM)=   -3.196   E(TOP)=   -3.107  0  1   142
             LOCAL ORBITAL
:E0_0002: E( 0)=    0.5818
             APW+lo
:E0_0002: E( 0)=   -1.0200   E(BOTTOM)=   -1.649   E(TOP)= -200.000  3 -1   186
             LOCAL ORBITAL
:E1_0002: E( 1)=    0.1818
             APW+lo

       K=   0.00000   0.00000   0.00000            1
:RKM  : MATRIX SIZE   575LOs:  54  RKM= 7.85  WEIGHT= 1.00  PGR:    
       EIGENVALUES ARE:
:EIG00001:      -3.5983733   -3.5983733   -3.5891757   -3.5891757   -3.5759400
:EIG00006:      -3.5739990   -3.1419374   -3.1415091   -3.1406229   -3.1406154
:EIG00011:      -3.1400768   -3.1400768   -3.1399174   -3.1399174   -3.1389329
:EIG00016:      -3.1389244   -0.7234010   -0.6182924   -0.0492606    0.0058028
:EIG00021:       0.0173471    0.0173471    0.0775032    0.0824526    0.0824526
:EIG00026:       0.2439229    0.2624548    0.3010926    0.3050630    0.3050630
:EIG00031:       0.3195272    0.5197829    0.5432061    0.5432061    0.6092132
:EIG00036:       0.6875284    0.7700349    0.9073334    0.9569529    0.9569529
:EIG00041:       1.2209255    1.2895571    1.2895571    1.3628486    1.3695337
:EIG00046:       1.3878122    1.4065391    1.4065865    1.4595100    1.4595100
 
:EIG00051:       1.6699454    1.6699454    1.6799877    1.7170576
       ********************************************************

:KPT   :      NUMBER OF K-POINTS:    84

------- case.scf2 --------
:GMA  : POTENTIAL AND CHARGE CUT-OFF  12.00 Ry**.5




:POS001: at.nr.  -1 position = 0.25000 0.75000 0.00000  multiplicity =  2

       lmmax  8
       lm=   0 0  2 0 -3 2  4 0  4 4 -5 2  6 0  6 4




:POS002: at.nr.  -2 position = 0.25000 0.75000 0.00000  multiplicity =  2

       lmmax 10
       lm=   0 0  1 0  2 0  3 0  4 0  4 4  5 0  5 4  6 0  6 4
:FER gutzwiller fermi energy   0.43924
:EORB        -22.044542484
:SUM sum of gutz band energies       -102.936500182

:CHA001: total charge inside sphere   1 =    12.646777
:PCS001: partial charges sphere =  1 s,p,d,f,pz,pxy,,d-z2,d-xy,d-x2y2,d-xz,yz 
:QTL001: 0.3171 6.3328 5.9636 0.0268 2.0842 4.2486 0.0000 1.3147 1.2441 1.0891 2.3158 0.0000
:VZZ001: efg inside sphere   1 =     1.245318      up to r =   2.16000

:CHA002: total charge inside sphere   2 =    13.577164
:PCS002: partial charges sphere =  2 s,p,d,f,pz,pxy,,d-z2,d-xy,d-x2y2,d-xz,yz 
:QTL002: 1.3442 2.148010.0644 0.0167 0.7296 1.4185 0.0000 2.0112 2.0148 2.0125 4.0259 0.0000
:VZZ002: efg inside sphere   2 =    -5.093919      up to r =   2.05000

:CHA  : total charge inside unit cell =      60.000000

------- case.scfc --------

        1.ATOM      Fe                    5 CORE STATES
:1S 001: 1S                -512.335976144 Ry
:2S 001: 2S                 -59.282960526 Ry
:2PP001: 2P*                -51.083434560 Ry
:2P 001: 2P                 -50.168361816 Ry
:3S 001: 3S                  -6.050729285 Ry

        2.ATOM      Se                    7 CORE STATES
       CORE-FORCE in mRy/a.u. = |F|      Fx             Fy             Fz
:FCO002:   2.ATOM   1263.106310242319      0.000000000000      0.000000000000  -1263.106310242319

:1S 002: 1S                -916.441339497 Ry
:2S 002: 2S                -117.105332846 Ry
:2PP002: 2P*               -105.079900454 Ry
:2P 002: 2P                -102.016740147 Ry
:3S 002: 3S                 -14.840715212 Ry
:3PP002: 3P*                -10.728013159 Ry
:3P 002: 3P                 -10.295698095 Ry

------- case.scfm --------
:CINT001 Core Integral Atom   1   11.997185
:CINT002 Core Integral Atom   2   17.999401

       DENSITY AT NUCLEUS
        JATOM        VALENCE       SEMI-CORE          CORE           TOTAL
:RTO001:   1        7.003197        0.000000    14798.150750    14805.153947
:RTO002:   2       54.881441        0.000000    38924.517661    38979.399103
     
       CHARGES OF NEW CHARGE DENSITY
:NTO   : INTERSTITIAL CHARGE =     7.552114
:NPC   : PW Pseudocharge     =    14.386119
:NTO001: CHARGE SPHERE  1    =    24.643962
:NTO002: CHARGE SPHERE  2    =    31.576564

:NEC01: NUCLEAR AND ELECTRONIC CHARGE    120.00000   119.99317
     
       CHARGES OF OLD CHARGE DENSITY
:OTO   : INTERSTITIAL CHARGE =     7.558709
:OPC   : PW Pseudocharge     =    14.398700
:OTO001: CHARGE SPHERE  1    =    24.644080
:OTO002: CHARGE SPHERE  2    =    31.576566

:NEC02: NUCLEAR AND ELECTRONIC CHARGE    120.00000   120.00000
     
       CONVERGENCE TEST
:DTO001: DIFFERENCE IN SPHERE  1 =  0.0001339
:DTO002: DIFFERENCE IN SPHERE  2 =  0.0000242

:DIS  :  CHARGE DISTANCE       ( 0.0001339 for atom    1 spin 1)      0.0000791
 PW Mixed is          365
 
******************************************************
* MULTISECANT MIXING VER9 RELEASE 10.4.0              *
* Standard Mode with controls                        *
* Fixed density scale                                *
* Regularization       1.000E-04                     *
* Trust Upper Limit    5.000E+00                     *
* Max Number of Memory Steps    8                    *
******************************************************
 
:PWTMP   3.7368E+02  3.2249E+02  5.3028E+02
:PLANE:  PW TOTAL      3.8152 DISTAN   1.16E-04  3.03E-03 %
:CHARG:  CLM/ATOM    303.3494 DISTAN   9.65E-05  3.18E-05 %
 
Step History
        DMIX         DMIXT        Red     Pred      Trust     Lambda    MagRel    MagAbs     Beta
  6   2.9519E-01   2.9519E-01  6.29E-01  6.23E-01  3.38E+00  1.76E+00  6.57E-01  3.82E-03  1.00E+00
  7   2.0086E-01   2.0086E-01  5.05E-01  6.79E-01  4.51E+00  1.82E+00  3.17E-01  1.16E-03  9.13E-01
  8   3.1943E-01   3.1943E-01  2.40E-01  3.73E-01  6.01E+00  1.70E+00  6.19E-01  1.14E-03  1.00E+00
  9   3.0973E-01   3.0973E-01  4.98E-01  5.44E-01  8.01E+00  1.20E+00  7.08E-01  3.12E-04  1.00E+00
 10   3.5000E-01   3.5000E-01  8.77E-01  5.46E-01  1.07E+01  1.69E+00  5.61E-01  1.23E-04  9.99E-01
 11   2.8844E-01   2.8844E-01  2.90E+00  2.05E-01  1.22E+01  1.76E+00  3.81E-01  7.34E-05  1.00E+00
 12   1.7888E-01   1.7888E-01  3.79E-01  6.44E-02  4.81E+00  1.93E+00  4.78E-02  2.67E-05  9.57E-01
 13   1.4914E-01   1.4914E-01  3.39E-01  1.95E-01  5.57E+00  1.85E+00  2.92E-01  6.17E-05  1.00E+00
 14   1.0470E-01   1.0470E-01  3.51E+00  2.86E-01  7.43E+00  2.19E+00  4.09E-01  2.93E-05  8.00E-01
 15   8.2773E-02   8.2773E-02 -1.00E+00  5.79E-02  2.49E+00  1.00E+00  5.01E-02  1.26E-05  1.00E+00
:JACOBIANS    1.085E+00   2.656E+00
  
:NORMS:  1/Froebius, Min, Max, Used   0.4746E+00  0.3842E+00  0.9470E+00  0.5208E+00
:INFO :  Number of Memory Steps    9 Skipping    5
:INFO :  SLambda=    0.7138546168  Max    2.3262236788
:PREDicted Charge, CTotal, PW Trust    2.965E-06   3.865E-06   1.531E-05
:PREDicted DMix, Beta, BLim   1.1444E-02  5.2880E-01  3.2867E+00

Eigenvalues, unscaled except for SY+YY
   #     SY Real        SY Imag          SS             YY         SY+YY Real      SY+YY Imag
   1   1.251610E+00   0.000000E+00   1.154560E+00   4.256496E+00   4.492982E+00   0.000000E+00
   2   5.786089E-01   0.000000E+00   4.023384E-01   2.119085E+00   2.500362E+00   0.000000E+00
   3   3.202018E-01   0.000000E+00   2.546866E-01   1.365277E+00   2.003700E+00   0.000000E+00
   4   1.100022E-01   5.878972E-02   1.727896E-01   7.404320E-01   9.981729E-01   0.000000E+00
   5   1.100022E-01  -5.878972E-02   2.892249E-02   2.735178E-01   3.925482E-01   0.000000E+00
   6  -4.825608E-02   0.000000E+00   1.400576E-02   1.651976E-01   2.055605E-03   0.000000E+00
   7  -1.819340E-03   0.000000E+00   2.673278E-04   7.524267E-02   3.402906E-03   0.000000E+00
   8   1.624262E-04   0.000000E+00   4.984768E-05   3.053790E-03   1.325144E-01   0.000000E+00
   9   2.443448E-03   0.000000E+00   8.080709E-06   1.697831E-03   1.325144E-01   0.000000E+00
 
:INFO :  Singular value  4.509E+00 Weight  1.000E+00 Projection -8.502E-05
:INFO :  Singular value  2.513E+00 Weight  1.000E+00 Projection  3.092E-05
:INFO :  Singular value  2.013E+00 Weight  1.000E+00 Projection -7.189E-05
:INFO :  Singular value  9.998E-01 Weight  1.000E+00 Projection -4.169E-05
:INFO :  Singular value  3.926E-01 Weight  1.000E+00 Projection -7.446E-05
:INFO :  Singular value  1.564E-01 Weight  1.000E+00 Projection  4.412E-05
:INFO :  Singular value  1.109E-01 Weight  1.000E+00 Projection  4.953E-05
:INFO :  Singular value  3.395E-03 Weight  9.845E-01 Projection -7.667E-05
:INFO :  Singular value  2.055E-03 Weight  9.588E-01 Projection  1.932E-04
:RANK :  ACTIVE   8.94/9  =  99.37 % ; YY RANK   8.92/9  =  99.13 %
 
:DLIM :  Beta Active  8.000E-01
:BLIM :  VZERO Control Off
:TRUST:  Step 1.58E+00  Charge 4.26E-03 (e) CTO  1.42E-02 (e) PW  1.99E-02 (e)
:DIRM :  MEMORY  9/8  SCALE   1.000 RED  0.89 PRED  0.06 NEXT  0.21 BETA  0.80
:TRAVE:  Charge 9.24E-06 (e) CTO  1.40E-05 (e) PW  1.85E-05 (e)
:DIRP :  |MSR1|= 3.582E-06 |PRATT|= 1.158E-04 ANGLE=  24.3 DEGREES
:DIRQ :  |MSR1|= 7.085E-06 |PRATT|= 1.930E-04 ANGLE=  68.3 DEGREES
:DIRT :  |MSR1|= 7.939E-06 |PRATT|= 2.251E-04 ANGLE=  60.3 DEGREES
:MIX  :   MSD1   REGULARIZATION:  4.26E-04 GREED: 0.06390  Newton 1.00  0.0353                
     
       CHARGES OF MIXED CHARGE DENSITY
:CTO   : INTERSTITIAL CHARGE =     7.558712
:CPC   : PW Pseudocharge     =    14.398713
:CTO001: CHARGE SPHERE  1    =    24.644080
:CTO002: CHARGE SPHERE  2    =    31.576564

:NEC03: NUCLEAR AND ELECTRONIC CHARGE    120.00000   120.00000

PW CHANGE     H    K    L      Current       Change    Residue
:PTO001:      0    0    0  4.14072110E-02  3.163E-08  1.267E-06
:PTO002:      0    0   -1  2.86186270E-02  3.202E-08  7.902E-07
:PTO004:     -1    0   -1 -9.13458959E-02 -7.601E-08 -2.808E-06
:PTO005:      0    0   -2 -9.66386705E-03 -6.981E-09 -3.364E-07
:PTO006:     -1   -1    0 -2.18906313E-02 -5.448E-09 -6.753E-07
:PTO007:     -1   -1   -1  8.20063820E-03  3.219E-08  2.992E-07
:PTO008:     -1    0   -2 -1.71737039E-02 -1.049E-08 -4.427E-07
:PTO009:     -1   -1   -2  2.73089122E-02  3.256E-08  8.243E-07
:PTO010:     -2    0    0 -1.28286836E-02 -1.640E-08 -3.892E-07
:PTO011:      0    0   -3 -2.39715611E-03 -8.448E-10 -5.105E-08
:PTO012:     -2    0   -1 -2.38002678E-03  9.037E-09 -4.949E-08
:PTO014:     -1    0   -3  8.64683190E-03  1.871E-08  2.777E-07

:ENE  : ********** TOTAL ENERGY IN Ry =       -14810.25894985

       TOTAL FORCE IN mRy/a.u. = |F|     Fx             Fy             Fz     with/without FOR in case.in2
:FOR001:   1.ATOM          0.000          0.000          0.000          0.000 partial forces
:FOR002:   2.ATOM        480.266          0.000          0.000        480.266 partial forces
       TOTAL FORCE WITH RESPECT TO GLOBAL CARTESIAN COORDINATES:
:FCA001:   1.ATOM                         0.000          0.000          0.000 partial forces
:FCA002:   2.ATOM                         0.000          0.000        480.266 partial forces
       TOTAL FORCE WITH RESPECT TO THE GLOBAL COORDINATE SYSTEM:
:FGL001:   1.ATOM                 0.000000000     0.000000000     0.000000000 partial forces
:FGL002:   2.ATOM                 0.000000000     0.000000000   480.265536725 partial forces
