
:LABEL1: Calculations in /home/ykent/GWIEN/example/Pr/aU/V23/case
:LABEL2: on didymium-2.cmpgroup.ameslab.gov at Fri Jul 10 14:29:26 CDT 2020
:LABEL3: using WIEN2k_19.1 (Release 25/6/2019) in /home/ykent/opt/src/WIEN2k_19.1
:LABEL4: using the command: run_lapw -so -i 70 -cc 0.0001
 Flat Integration
 New Mode for Coulomb Integral
 Consistent 3/8+Simpson combinations
 Extension of core to zero
 LDM version in phi
 Fifth-order quadrature in outwin


            ---------
:ITE017: 17. ITERATION
            ---------

:NATO :    1 INDEPENDENT AND    2 TOTAL ATOMS IN UNITCELL
       SUBSTANCE: aU                                                          

       LATTICE                      = CXY 
:POT  : POTENTIAL OPTION EX_LDA EC_LDA VX_LDA VC_LDA
:LAT  : LATTICE CONSTANTS=  6.83209 13.86404 11.96912    1.571    1.571    1.571
:VOL  : UNIT CELL VOLUME =     566.85996
       MODE OF CALCULATION IS       = RELA
       NON-SPINPOLARIZED CALCULATION
:IFFT  : FFT-parameters:   60  108   96 Factor: 2.00


   CONVERGENCE PARAMETER FOR PSEUDOCHARGE: NCON=  9
   MAXIMAL VALUE OF RMT(JATOM)*ABSK(NKK) : RK  =27.59644


:VKCOUL :  VK-COUL convergence: 0.183E-06
       ATOMNUMBER=  1 Pr1        VCOUL-ZERO = -0.79351E-01
:EFG001:                        EFG         =    -6.15501   *10**21  V / m**2
                               V20  TOT/SRF=    -5.33040    -0.01549
                               V22  TOT/SRF=     0.27370     0.00191
                               V22M TOT/SRF=     0.00000     0.00000
                               V21  TOT/SRF=     0.00000     0.00000
                               V21M TOT/SRF=     0.00000     0.00000

              3.35121    0.00000    0.00000        3.35121    0.00000    0.00000
              0.00000    2.80381    0.00000        0.00000    2.80381    0.00000
              0.00000    0.00000   -6.15501        0.00000    0.00000   -6.15501

         MAIN DIRECTIONS OF THE EFG   1.0000  0.0000  0.0000
                                      0.0000  1.0000  0.0000
                                      0.0000  0.0000  1.0000
:ANG001:  ANGLE WITH OLD X-AXIS =         0.0

:ETA001:                         ASYMM. ETA =     0.08894


     HELLMANN-FEYNMAN-FORCE IN mRy/a.u. = |F|  Fx       Fy             Fz
:FHF001:   1.ATOM   1095.867166107098      0.000000000000      0.000000000000  -1095.867166107098

:FIT001: LUSE= 13 SIGMA OF V-XC FIT FOR ATOM  1  0.5920695E-04
:FIT001: LUSE= 13 SIGMA OF V-XC FIT FOR ATOM  1  0.5920695E-04
:DEN  : DENSITY INTEGRAL  =        -14134.08935847   (Ry)
       ELS_POTENTIAL_AT Z=0 and Z=0.5:   0.64082   0.64082
       ELS_POTENTIAL_AT Y=0 and Y=0.5:   0.08625   0.08625
:VZERO:v0,v0c,v0x   0.10778   0.64082  -0.53305 v5,v5c,v5x   0.10778   0.64082  -0.53305
:VZERY:v0,v0c,v0x  -0.62851   0.08625  -0.71476 v5,v5c,v5x  -0.62851   0.08625  -0.71476
:VZERX:v0,v0c,v0x  -1.05557  -0.36360  -0.69196 v5,v5c,v5x  -1.05557  -0.36360  -0.69196
:LMAX-WF:   10   Non-Spherical LMAX:   4

          ATOMIC SPHERE DEPENDENT PARAMETERS FOR ATOM  Pr1       
:e__0001: OVERALL ENERGY PARAMETER IS    0.3061
          OVERALL BASIS SET ON ATOM IS LAPW
:E0_0001: E( 0)=    0.3061
             APW+lo
:E0_0001: E( 0)=   -2.1784   E(BOTTOM)=   -2.815   E(TOP)=   -1.541  4  5   165
             LOCAL ORBITAL
:E1_0001: E( 1)=    0.7061
             APW+lo
:E1_0001: E( 1)=   -0.7095   E(BOTTOM)=   -1.669   E(TOP)=    0.250  3  4   195
             LOCAL ORBITAL
:E3_0001: E( 3)=    0.4849   E(BOTTOM)=    0.275   E(TOP)=    0.695  0  1   127
             APW+lo
:E2_0001: E( 2)=    0.3061   E(BOTTOM)=    0.072   E(TOP)= -200.000  2 -1    96
             APW+lo

       K=   0.06250   0.00000   0.06250            1
:RKM  : MATRIX SIZE   530LOs:  40  RKM= 8.48  WEIGHT= 4.00  PGR:    
       EIGENVALUES ARE:
:EIG00001:      -2.1424154   -2.1350049   -0.8505524   -0.8035158   -0.7926853
:EIG00006:      -0.7882935   -0.7839213   -0.7839139    0.2725402    0.4186987
:EIG00011:       0.5027240    0.5031173    0.5033392    0.5050199    0.5071359
:EIG00016:       0.5151138    0.5173465    0.5179273    0.5199307    0.5222225
:EIG00021:       0.5243011    0.5275522    0.5286747    0.5316570    0.5677542
:EIG00026:       0.5801120    0.6342593    0.6619927    0.6694797    0.7100580
:EIG00031:       0.7245253    0.7889325    0.8312421    0.8649060    1.0987283
:EIG00036:       1.1577436    1.2458724    1.2500958    1.3860952    1.4390587
:EIG00041:       1.4671154    1.5678933    1.6207548    1.6455959    1.7100422
:EIG00046:       1.7920326    1.7966181    1.8241433    1.8952322    1.9651361
 
:EIG00051:       2.0149840    2.0676477    2.0888757    2.1300052    2.1536698
:EIG00056:       2.2381066    2.2765525    2.2970329    2.3811428    2.4105517
:EIG00061:       2.4695248    2.5078302    2.6176915    2.7031082    2.7229023
:EIG00066:       2.8066825    2.8346213    2.8489252    2.8644431    2.9495333
:EIG00071:       2.9625236    3.0056340    3.0295532    3.0584926    3.0702224
:EIG00076:       3.1119259    3.1524466    3.1816669    3.2115787    3.2302607
:EIG00081:       3.2713969    3.3188483    3.3278142    3.3604399    3.4178872
:EIG00086:       3.4434145    3.5099896    3.5193057    3.5498037    3.5572022
:EIG00091:       3.5916666    3.6062103    3.6547118    3.6585515    3.6626217
:EIG00096:       3.7264292    3.7417443    3.7511180    3.7642423    3.8438753
 
:EIG00101:       3.8891468    4.0141333    4.0187710    4.0709957    4.1097299
:EIG00106:       4.1278397    4.1552412    4.1584910    4.2085236    4.2342974
:EIG00111:       4.2921051    4.3153547    4.3284929    4.3548434    4.3689488
:EIG00116:       4.4381540    4.5053511    4.5425169    4.5509799    4.5718070
:EIG00121:       4.6088255    4.6884642    4.6943890    4.7275471    4.7845696
:EIG00126:       4.8359887    4.8496381    4.8888004    4.9405388    4.9567426
:EIG00131:       4.9875501    5.0257154    5.0616738    5.0832830    5.0931303
:EIG00136:       5.1441129    5.1889632    5.2363159    5.2477168    5.2794007
:EIG00141:       5.2913502    5.2935960    5.3420088    5.3941298    5.3951433
:EIG00146:       5.4189291    5.4409167    5.4479279    5.4538039    5.5446497
 
:EIG00151:       5.5480468    5.5831102    5.6555434    5.6774676    5.6956513
:EIG00156:       5.8039990    5.8718131    5.8815256    5.9380123    5.9419558
:EIG00161:       5.9765620    6.0542171    6.0877754    6.0905015    6.1023511
:EIG00166:       6.1662697    6.2084414    6.2118160    6.2385306    6.2521777
:EIG00171:       6.2715303    6.3380226    6.3491072    6.3703956    6.4166174
:EIG00176:       6.4271673    6.4609215    6.4793626    6.5188427    6.5285497
:EIG00181:       6.6075483    6.6193424    6.6283667    6.6602358    6.6845007
:EIG00186:       6.6969200    6.7119165    6.7786166    6.7880763    6.7946610
:EIG00191:       6.8482582    6.8572798    6.8993634    6.9153982    6.9416288
:EIG00196:       6.9563088    6.9696018    6.9995142    7.0011175    7.0408463
 
:EIG00201:       7.0724461    7.1257924    7.1297121    7.1330246    7.1796965
:EIG00206:       7.1939618    7.2130809    7.2681599    7.2940207    7.3212262
:EIG00211:       7.3290925    7.3708574    7.3741359    7.3947018    7.4060661
:EIG00216:       7.4326224    7.4460820    7.4531437    7.4809436    7.5196123
:EIG00221:       7.5476985    7.5919567    7.5933603    7.6009643    7.6049263
:EIG00226:       7.6179528    7.6464859    7.6538334    7.6923269    7.7498329
:EIG00231:       7.7573341    7.7937729    7.8412631    7.8416674    7.8514313
:EIG00236:       7.8602971    7.8995998    7.9091888    7.9226338    7.9661860
:EIG00241:       7.9733633    7.9931064
       ********************************************************

:KPT   :      NUMBER OF K-POINTS:   288
   0.0   0.0 angle (M,z), angle (M,x) deg
 
        SPIN-ORBIT EIGENVALUES:
     K=   0.06250   0.00000   0.06250            1
      MATRIX SIZE=  484   WEIGHT= 4.00
     EIGENVALUES ARE:
          -2.1424154   -2.1424154   -2.1350049   -2.1350049   -0.9566046
          -0.9566046   -0.9341953   -0.9341953   -0.7669512   -0.7669512
          -0.7252317   -0.7252317   -0.7230751   -0.7230751   -0.7175279
          -0.7175279    0.2725626    0.2725626    0.4185735    0.4185735
           0.4946124    0.4946124    0.4958621    0.4958621    0.4964938
           0.4964938    0.4976096    0.4976096    0.4995585    0.4995585
           0.5015516    0.5015516    0.5195810    0.5195810    0.5245723
           0.5245723    0.5273632    0.5273632    0.5280963    0.5280963

           0.5316486    0.5316486    0.5342876    0.5342876    0.5350102
           0.5350102    0.5377461    0.5377461    0.5682706    0.5682706
           0.5799601    0.5799601    0.6343465    0.6343466    0.6591107
           0.6591107    0.6718686    0.6718686    0.7106037    0.7106037
           0.7244928    0.7244929    0.7887268    0.7887268    0.8315555
           0.8315555    0.8650460    0.8650460    1.0987429    1.0987429
           1.1579156    1.1579156    1.2458370    1.2458370    1.2501259
           1.2501259    1.3855655    1.3855655    1.4382738    1.4382738

           1.4671589    1.4671589    1.5652277    1.5652277    1.6205337
           1.6205337    1.6463166    1.6463166    1.7106967    1.7106967
           1.7890073    1.7890073    1.7957062    1.7957062    1.8270488
           1.8270488    1.8955958    1.8955958    1.9645801    1.9645801
           2.0146669    2.0146669    2.0656393    2.0656393    2.0901656
           2.0901656    2.1318916    2.1318916    2.1542539    2.1542539
           2.2379948    2.2379948    2.2767264    2.2767264    2.2973485
           2.2973485    2.3810191    2.3810191    2.4103324    2.4103324

           2.4726615    2.4726615    2.5079889    2.5079889    2.6176239
           2.6176239    2.7032233    2.7032233    2.7229941    2.7229941
           2.8062267    2.8062267    2.8346405    2.8346405    2.8491169
           2.8491169    2.8646141    2.8646141    2.9497169    2.9497169
           2.9625878    2.9625878    3.0056891    3.0056891    3.0295991
           3.0295991    3.0578247    3.0578247    3.0712123    3.0712123
           3.1120410    3.1120410    3.1535549    3.1535549    3.1817419
           3.1817419    3.2115778    3.2115778    3.2306435    3.2306435

           3.2716069    3.2716069    3.3188637    3.3188637    3.3278635
           3.3278635    3.3605933    3.3605933    3.4179049    3.4179049
           3.4435394    3.4435394    3.5100835    3.5100835    3.5192914
           3.5192914    3.5497754    3.5497754    3.5572516    3.5572516
           3.5916748    3.5916748    3.6062518    3.6062518    3.6539865
           3.6539865    3.6588442    3.6588442    3.6627658    3.6627658
           3.7263875    3.7263875    3.7414792    3.7414792    3.7515724
           3.7515724    3.7643338    3.7643338    3.8439013    3.8439013

           3.8889540    3.8889540    4.0120762    4.0120762    4.0202204
           4.0202204    4.0718662    4.0718662    4.1095747    4.1095747
           4.1279134    4.1279134    4.1555836    4.1555836    4.1591711
           4.1591711    4.2086983    4.2086983    4.2343838    4.2343838
           4.2921408    4.2921408    4.3153782    4.3153782    4.3289231
           4.3289231    4.3549228    4.3549228    4.3689680    4.3689680
           4.4381688    4.4381688
       ********************************************************
:GAP (global)   :    0.0    Ry =     0.0   eV (metal)
:GAP (this spin):    0.0    Ry =     0.0   eV (metal)
         Bandranges (emin - emax) and occupancy:
:BAN00018:  18    0.268435    0.474511  1.00000000
:BAN00019:  19    0.370840    0.486321  1.00000000
:BAN00020:  20    0.370840    0.486321  1.00000000
:BAN00021:  21    0.460494    0.494612  1.00000000
:BAN00022:  22    0.460494    0.494612  1.00000000
:BAN00023:  23    0.487657    0.497135  1.00000000
:BAN00024:  24    0.487657    0.497135  1.00000000
:BAN00025:  25    0.491980    0.501890  0.80313930
:BAN00026:  26    0.491980    0.501890  0.80313897
:BAN00027:  27    0.496232    0.502314  0.19686106
:BAN00028:  28    0.496232    0.502314  0.19686066
:BAN00029:  29    0.498609    0.506204  0.00000000
:BAN00030:  30    0.498609    0.506204  0.00000000
:BAN00031:  31    0.500706    0.510510  0.00000000
:BAN00032:  32    0.500706    0.510510  0.00000000
:BAN00033:  33    0.503749    0.519819  0.00000000
        Energy to separate low and high energystates:    0.21843


:NOE  : NUMBER OF ELECTRONS          =   26.000

:FER  : F E R M I - ENERGY(TETRAH.M.)=   0.4983154810
:GMA  : POTENTIAL AND CHARGE CUT-OFF  12.00 Ry**.5

:POS001: ATOM   -1 X,Y,Z = 0.00000 0.89750 0.25000  MULT= 2  ZZ= 59.000  Pr1       

       LMMAX 16
       LM=   0 0  1 0  2 0  2 2  3 0  3 2  4 0  4 2  4 4  5 0  5 2  5 4  6 0  6 2  6 4  6 6

:CHA001: TOTAL VALENCE CHARGE INSIDE SPHERE   1 =   9.6665    (RMT=  2.3000 )
:PCS001: PARTIAL CHARGES SPHERE =  1 S,P,D,F,PX,PY,PZ,D-Z2,D-X2Y2,D-XY,D-XZ,D-YZ 
:QTL001: 1.9366 5.0172 0.3803 2.3323 1.6703 1.6704 1.6765 0.0673 0.0678 0.0922 0.0705 0.0824
        Q-s-low E-s-low   Q-p-low E-p-low   Q-d-low E-d-low   Q-f-low E-f-low
:EPL001:  1.8698 -2.1353    4.9648 -0.8172    0.0007 -0.8034    0.0002 -0.8107
        Q-s-hi  E-s-hi    Q-p-hi  E-p-hi    Q-d-hi  E-d-hi    Q-f-hi  E-f-hi 
:EPH001:  0.0669  0.4043    0.0524  0.4386    0.3796  0.4600    2.3321  0.4908

                      VXX         VYY         VZZ       UP TO R
:VZZ001:             3.64488    -0.34533    -3.29955       2.300

:CHA  : TOTAL VALENCE CHARGE INSIDE UNIT CELL =      26.000000

:SUM  : SUM OF EIGENVALUES =         -13.665418663


        1.ATOM      Pr1                  14 CORE STATES
       CORE-FORCE in mRy/a.u. = |F|      Fx             Fy             Fz
:FCO001:   1.ATOM   1064.614458303753      0.000000000000      0.000000000000   1064.614458303753

:1S 001: 1S               -3067.100676699 Ry
:2S 001: 2S                -492.850465128 Ry
:2PP001: 2P*               -465.950398165 Ry
:2P 001: 2P                -430.552613960 Ry
:3S 001: 3S                -105.933248772 Ry
:3PP001: 3P*                -94.471447568 Ry
:3P 001: 3P                 -87.463319342 Ry
:3DD001: 3D*                -67.391327921 Ry
:3D 001: 3D                 -65.879643196 Ry
:4S 001: 4S                 -20.611971052 Ry
:4PP001: 4P*                -16.319247671 Ry
:4P 001: 4P                 -14.792462463 Ry
:4DD001: 4D*                 -7.726775235 Ry
:4D 001: 4D                  -7.457598739 Ry
:CINT001 Core Integral Atom   1   45.998476

       DENSITY AT NUCLEUS
        JATOM        VALENCE       SEMI-CORE          CORE           TOTAL
:RTO001:   1      644.992981        0.000000   656824.808423   657469.801404
     
       CHARGES OF NEW CHARGE DENSITY
:NTO   : INTERSTITIAL CHARGE =     6.667097
:NPC   : PW Pseudocharge     =    16.721567
:NTO001: CHARGE SPHERE  1    =    55.664927

:NEC01: NUCLEAR AND ELECTRONIC CHARGE    118.00000   117.99695
     
       CHARGES OF OLD CHARGE DENSITY
:OTO   : INTERSTITIAL CHARGE =     7.029495
:OPC   : PW Pseudocharge     =    16.821792
:OTO001: CHARGE SPHERE  1    =    55.485252

:NEC02: NUCLEAR AND ELECTRONIC CHARGE    118.00000   118.00000
     
       CONVERGENCE TEST
:DTO001: DIFFERENCE IN SPHERE  1 =  0.2912760

:DIS  :  CHARGE DISTANCE       ( 0.2912760 for atom    1 spin 1)      0.2912760
 PW Mixed is          580
 
******************************************************
* MULTISECANT MIXING VER9 RELEASE 10.4.0              *
* Standard Mode with controls                        *
* Fixed density scale                                *
* Regularization       1.000E-04                     *
* Trust Upper Limit    5.000E+00                     *
* Max Number of Memory Steps    8                    *
******************************************************
 
:PWTMP   4.6493E+02  1.9467E+02  5.6686E+02
:PLANE:  PW TOTAL      4.2541 DISTAN   4.19E-02  9.86E-01 %
:CHARG:  CLM/ATOM   1381.9363 DISTAN   4.90E-01  3.55E-02 %
 
Step History
        DMIX         DMIXT        Red     Pred      Trust     Lambda    MagRel    MagAbs     Beta
  1   3.5000E-02   3.5000E-02 -1.00E+00  1.00E+00 -1.00E+01  1.00E+00  3.50E-02  3.50E-02  1.00E+00
:INFO :  Note, Pratt in use
:TRUST:  Step 3.75E-02  Charge 7.50E-02 (e) CTO  2.50E-01 (e) PW  3.50E-01 (e)
:DIRM :  MEMORY  0/ 8 SCALE   1.000
Performing Pseudo Compensation
Final Pseudo Compensation Rescaling     1.00000E+00
:MIX  :   PRATT  REGULARIZATION:  1.00E-04 GREED: 0.02500                  
     
       CHARGES OF MIXED CHARGE DENSITY
:CTO   : INTERSTITIAL CHARGE =     7.020512
:CPC   : PW Pseudocharge     =    16.801265
:CTO001: CHARGE SPHERE  1    =    55.489744

:NEC03: NUCLEAR AND ELECTRONIC CHARGE    118.00000   118.00000

PW CHANGE     H    K    L      Current       Change    Residue
:PTO001:      0    0    0  4.20240947E-02 -5.206E-05 -7.972E-04
:PTO003:      0    2    0  1.24294818E-02 -1.114E-05  3.261E-05
:PTO004:     -1    1    0  6.19026865E-02 -6.678E-05 -2.537E-04
:PTO005:      0    2   -1 -7.24196494E-02  6.791E-05 -1.124E-04
:PTO006:      0    0   -2 -3.74433776E-02  3.820E-05  5.936E-05
:PTO007:     -1    1   -1 -7.96800465E-02  7.592E-05 -5.736E-05
:PTO008:      0    2   -2 -1.35386856E-02  1.270E-05  2.252E-05
:PTO009:     -1    1   -2 -7.11034779E-02  5.851E-05  2.559E-06
:PTO011:     -1    3    0 -1.20951858E-02  1.043E-05  1.024E-04
:PTO012:     -1    3   -1 -5.54788883E-02  2.897E-05 -4.168E-05
:PTO013:      0    4    0 -1.04880019E-02  2.524E-06 -6.236E-05
:PTO014:      0    2   -3  2.39356577E-02 -9.064E-06 -2.278E-06

:ENE  : ********** TOTAL ENERGY IN Ry =       -36944.16349194

       TOTAL FORCE IN mRy/a.u. = |F|     Fx             Fy             Fz     with/without FOR in case.in2
:FOR001:   1.ATOM         31.253          0.000          0.000        -31.253 partial forces
       TOTAL FORCE WITH RESPECT TO GLOBAL CARTESIAN COORDINATES:
:FCA001:   1.ATOM                         0.000        -31.253          0.000 partial forces
       TOTAL FORCE WITH RESPECT TO THE GLOBAL COORDINATE SYSTEM:
:FGL001:   1.ATOM                 0.000000000   -31.252707803     0.000000000 partial forces
 Flat Integration
 New Mode for Coulomb Integral
 Consistent 3/8+Simpson combinations
 Extension of core to zero
 LDM version in phi
 Fifth-order quadrature in outwin


            ---------
:ITE018: 18. ITERATION
            ---------

:NATO :    1 INDEPENDENT AND    2 TOTAL ATOMS IN UNITCELL
       SUBSTANCE: aU                                                          

       LATTICE                      = CXY 
:POT  : POTENTIAL OPTION EX_LDA EC_LDA VX_LDA VC_LDA
:LAT  : LATTICE CONSTANTS=  6.83209 13.86404 11.96912    1.571    1.571    1.571
:VOL  : UNIT CELL VOLUME =     566.85996
       MODE OF CALCULATION IS       = RELA
       NON-SPINPOLARIZED CALCULATION
:IFFT  : FFT-parameters:   60  108   96 Factor: 2.00


   CONVERGENCE PARAMETER FOR PSEUDOCHARGE: NCON=  9
   MAXIMAL VALUE OF RMT(JATOM)*ABSK(NKK) : RK  =27.59644


:VKCOUL :  VK-COUL convergence: 0.182E-06
       ATOMNUMBER=  1 Pr1        VCOUL-ZERO = -0.79199E-01
:EFG001:                        EFG         =    -6.08387   *10**21  V / m**2
                               V20  TOT/SRF=    -5.26879    -0.01513
                               V22  TOT/SRF=     0.31688     0.00218
                               V22M TOT/SRF=     0.00000     0.00000
                               V21  TOT/SRF=     0.00000     0.00000
                               V21M TOT/SRF=     0.00000     0.00000

              3.35882    0.00000    0.00000        3.35882    0.00000    0.00000
              0.00000    2.72506    0.00000        0.00000    2.72506    0.00000
              0.00000    0.00000   -6.08387        0.00000    0.00000   -6.08387

         MAIN DIRECTIONS OF THE EFG   1.0000  0.0000  0.0000
                                      0.0000  1.0000  0.0000
                                      0.0000  0.0000  1.0000
:ANG001:  ANGLE WITH OLD X-AXIS =         0.0

:ETA001:                         ASYMM. ETA =     0.10417


     HELLMANN-FEYNMAN-FORCE IN mRy/a.u. = |F|  Fx       Fy             Fz
:FHF001:   1.ATOM   1095.964625450855      0.000000000000      0.000000000000  -1095.964625450855

:FIT001: LUSE= 13 SIGMA OF V-XC FIT FOR ATOM  1  0.5848610E-04
:FIT001: LUSE= 13 SIGMA OF V-XC FIT FOR ATOM  1  0.5848610E-04
:DEN  : DENSITY INTEGRAL  =        -14134.98460253   (Ry)
       ELS_POTENTIAL_AT Z=0 and Z=0.5:   0.63988   0.63988
       ELS_POTENTIAL_AT Y=0 and Y=0.5:   0.08615   0.08615
:VZERO:v0,v0c,v0x   0.10709   0.63988  -0.53279 v5,v5c,v5x   0.10709   0.63988  -0.53279
:VZERY:v0,v0c,v0x  -0.62832   0.08615  -0.71446 v5,v5c,v5x  -0.62832   0.08615  -0.71446
:VZERX:v0,v0c,v0x  -1.05477  -0.36310  -0.69167 v5,v5c,v5x  -1.05477  -0.36310  -0.69167
:LMAX-WF:   10   Non-Spherical LMAX:   4

          ATOMIC SPHERE DEPENDENT PARAMETERS FOR ATOM  Pr1       
:e__0001: OVERALL ENERGY PARAMETER IS    0.3009
          OVERALL BASIS SET ON ATOM IS LAPW
:E0_0001: E( 0)=    0.3009
             APW+lo
:E0_0001: E( 0)=   -2.1752   E(BOTTOM)=   -2.813   E(TOP)=   -1.538  4  5   167
             LOCAL ORBITAL
:E1_0001: E( 1)=    0.7009
             APW+lo
:E1_0001: E( 1)=   -0.7067   E(BOTTOM)=   -1.667   E(TOP)=    0.253  3  4   193
             LOCAL ORBITAL
:E3_0001: E( 3)=    0.4904   E(BOTTOM)=    0.279   E(TOP)=    0.702  0  1   122
             APW+lo
:E2_0001: E( 2)=    0.3009   E(BOTTOM)=    0.074   E(TOP)= -200.000  2 -1    97
             APW+lo

       K=   0.06250   0.00000   0.06250            1
:RKM  : MATRIX SIZE   530LOs:  40  RKM= 8.48  WEIGHT= 4.00  PGR:    
       EIGENVALUES ARE:
:EIG00001:      -2.1394552   -2.1320134   -0.8485466   -0.8013827   -0.7905148
:EIG00006:      -0.7858826   -0.7816540   -0.7814926    0.2723405    0.4187727
:EIG00011:       0.5075482    0.5080952    0.5082577    0.5100082    0.5119254
:EIG00016:       0.5205312    0.5227330    0.5233631    0.5253748    0.5273901
:EIG00021:       0.5297967    0.5330078    0.5340766    0.5370119    0.5693154
:EIG00026:       0.5810600    0.6349445    0.6626112    0.6701368    0.7107322
:EIG00031:       0.7252836    0.7897662    0.8322275    0.8659218    1.0995813
:EIG00036:       1.1579298    1.2460254    1.2501273    1.3861156    1.4390158
:EIG00041:       1.4672641    1.5680834    1.6210543    1.6458248    1.7105690
:EIG00046:       1.7922741    1.7966367    1.8244339    1.8954039    1.9656586
 
:EIG00051:       2.0152779    2.0679078    2.0889427    2.1305567    2.1539476
:EIG00056:       2.2381750    2.2772840    2.2969694    2.3813694    2.4109058
:EIG00061:       2.4700011    2.5078722    2.6180097    2.7034004    2.7227185
:EIG00066:       2.8066857    2.8350162    2.8493730    2.8644693    2.9496148
:EIG00071:       2.9623173    3.0056113    3.0295763    3.0585597    3.0702459
:EIG00076:       3.1121268    3.1523719    3.1817520    3.2114948    3.2303407
:EIG00081:       3.2714634    3.3185696    3.3276826    3.3604891    3.4176960
:EIG00086:       3.4431594    3.5098187    3.5189675    3.5494981    3.5572019
:EIG00091:       3.5913717    3.6061134    3.6548671    3.6585579    3.6625365
:EIG00096:       3.7261718    3.7416899    3.7508441    3.7639470    3.8435397
 
:EIG00101:       3.8892162    4.0140342    4.0188554    4.0708120    4.1095964
:EIG00106:       4.1276964    4.1550932    4.1582516    4.2083823    4.2341244
:EIG00111:       4.2920993    4.3150305    4.3285951    4.3543407    4.3689566
:EIG00116:       4.4382336    4.5057332    4.5429191    4.5508208    4.5720469
:EIG00121:       4.6085984    4.6887831    4.6944152    4.7275047    4.7842473
:EIG00126:       4.8362175    4.8496803    4.8887922    4.9403770    4.9568473
:EIG00131:       4.9873070    5.0255755    5.0616553    5.0831092    5.0931365
:EIG00136:       5.1439005    5.1888871    5.2360781    5.2480130    5.2793095
:EIG00141:       5.2913801    5.2935938    5.3420448    5.3944854    5.3947800
:EIG00146:       5.4187403    5.4409026    5.4476784    5.4535010    5.5450028
 
:EIG00151:       5.5478020    5.5828222    5.6553331    5.6775449    5.6953957
:EIG00156:       5.8037413    5.8717261    5.8817204    5.9379102    5.9420748
:EIG00161:       5.9764180    6.0539523    6.0879873    6.0904357    6.1023926
:EIG00166:       6.1663465    6.2083893    6.2117966    6.2384402    6.2521976
:EIG00171:       6.2715807    6.3381019    6.3492036    6.3706718    6.4171113
:EIG00176:       6.4272568    6.4610740    6.4798131    6.5189090    6.5288096
:EIG00181:       6.6077190    6.6195415    6.6283719    6.6599755    6.6847142
:EIG00186:       6.6967731    6.7116980    6.7787687    6.7880195    6.7947987
:EIG00191:       6.8482255    6.8572506    6.8994032    6.9153572    6.9418342
:EIG00196:       6.9564332    6.9694272    6.9993366    7.0010896    7.0408891
 
:EIG00201:       7.0721440    7.1255820    7.1295107    7.1331001    7.1800566
:EIG00206:       7.1940521    7.2130130    7.2679770    7.2939237    7.3212495
:EIG00211:       7.3289824    7.3708123    7.3740237    7.3946438    7.4059747
:EIG00216:       7.4326146    7.4460203    7.4530345    7.4807141    7.5193359
:EIG00221:       7.5474438    7.5916648    7.5931419    7.6007750    7.6046585
:EIG00226:       7.6177731    7.6462768    7.6536416    7.6921466    7.7497026
:EIG00231:       7.7571812    7.7935477    7.8412702    7.8412802    7.8513132
:EIG00236:       7.8602466    7.8995981    7.9089469    7.9224755    7.9659786
:EIG00241:       7.9731763    7.9930456
       ********************************************************

:KPT   :      NUMBER OF K-POINTS:   288
   0.0   0.0 angle (M,z), angle (M,x) deg
 
        SPIN-ORBIT EIGENVALUES:
     K=   0.06250   0.00000   0.06250            1
      MATRIX SIZE=  484   WEIGHT= 4.00
     EIGENVALUES ARE:
          -2.1394552   -2.1394552   -2.1320135   -2.1320135   -0.9542911
          -0.9542911   -0.9317658   -0.9317658   -0.7649364   -0.7649364
          -0.7229993   -0.7229993   -0.7208819   -0.7208819   -0.7152935
          -0.7152935    0.2723630    0.2723630    0.4186532    0.4186532
           0.4996097    0.4996097    0.5009965    0.5009965    0.5016541
           0.5016541    0.5027337    0.5027337    0.5047651    0.5047651
           0.5070265    0.5070265    0.5242290    0.5242290    0.5298254
           0.5298254    0.5326498    0.5326498    0.5333844    0.5333844

           0.5368543    0.5368543    0.5395692    0.5395692    0.5403705
           0.5403705    0.5430649    0.5430649    0.5700196    0.5700196
           0.5809823    0.5809823    0.6350892    0.6350892    0.6597488
           0.6597488    0.6725045    0.6725045    0.7112748    0.7112748
           0.7252529    0.7252529    0.7895620    0.7895620    0.8325385
           0.8325385    0.8660602    0.8660602    1.0995943    1.0995943
           1.1581032    1.1581032    1.2459898    1.2459898    1.2501587
           1.2501587    1.3855884    1.3855884    1.4382345    1.4382345

           1.4673059    1.4673059    1.5654275    1.5654275    1.6208208
           1.6208208    1.6465472    1.6465472    1.7112202    1.7112202
           1.7891672    1.7891672    1.7958408    1.7958408    1.8273083
           1.8273083    1.8957766    1.8957766    1.9650949    1.9650949
           2.0149624    2.0149624    2.0658898    2.0658898    2.0902482
           2.0902482    2.1324084    2.1324084    2.1545489    2.1545489
           2.2380763    2.2380763    2.2774282    2.2774282    2.2973028
           2.2973028    2.3812487    2.3812487    2.4106888    2.4106888

           2.4731325    2.4731325    2.5080332    2.5080332    2.6179417
           2.6179417    2.7035144    2.7035144    2.7228108    2.7228108
           2.8062389    2.8062389    2.8350334    2.8350334    2.8495550
           2.8495550    2.8646415    2.8646415    2.9497969    2.9497969
           2.9623829    2.9623829    3.0056662    3.0056662    3.0296226
           3.0296226    3.0578867    3.0578867    3.0712404    3.0712404
           3.1122417    3.1122417    3.1534823    3.1534823    3.1818268
           3.1818268    3.2114954    3.2114954    3.2307210    3.2307210

           3.2716734    3.2716734    3.3185850    3.3185850    3.3277330
           3.3277330    3.3606419    3.3606419    3.4177139    3.4177139
           3.4432840    3.4432840    3.5099126    3.5099126    3.5189535
           3.5189535    3.5494705    3.5494705    3.5572507    3.5572507
           3.5913802    3.5913802    3.6061551    3.6061551    3.6541292
           3.6541292    3.6588576    3.6588576    3.6626832    3.6626832
           3.7261310    3.7261310    3.7414172    3.7414172    3.7513087
           3.7513087    3.7640386    3.7640386    3.8435660    3.8435660

           3.8890226    3.8890226    4.0120145    4.0120145    4.0202596
           4.0202596    4.0716885    4.0716885    4.1094441    4.1094441
           4.1277700    4.1277700    4.1554064    4.1554064    4.1589568
           4.1589568    4.2085578    4.2085578    4.2342108    4.2342108
           4.2921351    4.2921351    4.3150613    4.3150613    4.3290173
           4.3290173    4.3544219    4.3544219    4.3689760    4.3689760
           4.4382487    4.4382487
       ********************************************************
:GAP (global)   :    0.0    Ry =     0.0   eV (metal)
:GAP (this spin):    0.0    Ry =     0.0   eV (metal)
         Bandranges (emin - emax) and occupancy:
:BAN00018:  18    0.268232    0.475842  1.00000000
:BAN00019:  19    0.370744    0.489255  1.00000000
:BAN00020:  20    0.370744    0.489255  1.00000000
:BAN00021:  21    0.461202    0.499610  1.00000000
:BAN00022:  22    0.461202    0.499610  1.00000000
:BAN00023:  23    0.490707    0.501734  1.00000000
:BAN00024:  24    0.490707    0.501734  1.00000000
:BAN00025:  25    0.496229    0.507196  0.80833942
:BAN00026:  26    0.496229    0.507196  0.80833917
:BAN00027:  27    0.501142    0.507677  0.19166090
:BAN00028:  28    0.501142    0.507677  0.19166051
:BAN00029:  29    0.503804    0.510621  0.00000000
:BAN00030:  30    0.503804    0.510621  0.00000000
:BAN00031:  31    0.506029    0.514542  0.00000000
:BAN00032:  32    0.506029    0.514542  0.00000000
:BAN00033:  33    0.508970    0.524464  0.00000000
        Energy to separate low and high energystates:    0.21823


:NOE  : NUMBER OF ELECTRONS          =   26.000

:FER  : F E R M I - ENERGY(TETRAH.M.)=   0.5033924354
:GMA  : POTENTIAL AND CHARGE CUT-OFF  12.00 Ry**.5

:POS001: ATOM   -1 X,Y,Z = 0.00000 0.89750 0.25000  MULT= 2  ZZ= 59.000  Pr1       

       LMMAX 16
       LM=   0 0  1 0  2 0  2 2  3 0  3 2  4 0  4 2  4 4  5 0  5 2  5 4  6 0  6 2  6 4  6 6

:CHA001: TOTAL VALENCE CHARGE INSIDE SPHERE   1 =   9.5738    (RMT=  2.3000 )
:PCS001: PARTIAL CHARGES SPHERE =  1 S,P,D,F,PX,PY,PZ,D-Z2,D-X2Y2,D-XY,D-XZ,D-YZ 
:QTL001: 1.9370 5.0179 0.4071 2.2116 1.6702 1.6705 1.6772 0.0731 0.0735 0.0957 0.0758 0.0890
        Q-s-low E-s-low   Q-p-low E-p-low   Q-d-low E-d-low   Q-f-low E-f-low
:EPL001:  1.8695 -2.1323    4.9623 -0.8150    0.0007 -0.8011    0.0002 -0.8086
        Q-s-hi  E-s-hi    Q-p-hi  E-p-hi    Q-d-hi  E-d-hi    Q-f-hi  E-f-hi 
:EPH001:  0.0676  0.4052    0.0556  0.4421    0.4065  0.4634    2.2114  0.4953

                      VXX         VYY         VZZ       UP TO R
:VZZ001:             3.97612     0.98764    -4.96375       2.300

:CHA  : TOTAL VALENCE CHARGE INSIDE UNIT CELL =      26.000000

:SUM  : SUM OF EIGENVALUES =         -13.601269012


        1.ATOM      Pr1                  14 CORE STATES
       CORE-FORCE in mRy/a.u. = |F|      Fx             Fy             Fz
:FCO001:   1.ATOM   1064.598617967717      0.000000000000      0.000000000000   1064.598617967717

:1S 001: 1S               -3067.090477444 Ry
:2S 001: 2S                -492.840246345 Ry
:2PP001: 2P*               -465.940183694 Ry
:2P 001: 2P                -430.542398149 Ry
:3S 001: 3S                -105.923250540 Ry
:3PP001: 3P*                -94.461428442 Ry
:3P 001: 3P                 -87.453339016 Ry
:3DD001: 3D*                -67.381277018 Ry
:3D 001: 3D                 -65.869601848 Ry
:4S 001: 4S                 -20.604027068 Ry
:4PP001: 4P*                -16.311433496 Ry
:4P 001: 4P                 -14.784848843 Ry
:4DD001: 4D*                 -7.719519769 Ry
:4D 001: 4D                  -7.450411998 Ry
:CINT001 Core Integral Atom   1   45.998471

       DENSITY AT NUCLEUS
        JATOM        VALENCE       SEMI-CORE          CORE           TOTAL
:RTO001:   1      644.880033        0.000000   656824.383611   657469.263644
     
       CHARGES OF NEW CHARGE DENSITY
:NTO   : INTERSTITIAL CHARGE =     6.852460
:NPC   : PW Pseudocharge     =    16.762238
:NTO001: CHARGE SPHERE  1    =    55.572241

:NEC01: NUCLEAR AND ELECTRONIC CHARGE    118.00000   117.99694
     
       CHARGES OF OLD CHARGE DENSITY
:OTO   : INTERSTITIAL CHARGE =     7.020511
:OPC   : PW Pseudocharge     =    16.801265
:OTO001: CHARGE SPHERE  1    =    55.489744

:NEC02: NUCLEAR AND ELECTRONIC CHARGE    118.00000   118.00000
     
       CONVERGENCE TEST
:DTO001: DIFFERENCE IN SPHERE  1 =  0.1376489

:DIS  :  CHARGE DISTANCE       ( 0.1376489 for atom    1 spin 1)      0.1376489
 PW Mixed is          580
 
******************************************************
* MULTISECANT MIXING VER9 RELEASE 10.4.0              *
* Slow Mode, cautious                                *
* Fixed density scale                                *
* Regularization       1.000E-04                     *
* Step Trust Radius    0.75000                       *
* Trust Upper Limit    2.000E+00                     *
* Max Number of Memory Steps   12                    *
******************************************************
 
:PWTMP   4.6493E+02  1.9467E+02  5.6686E+02
:PLANE:  PW TOTAL      4.2503 DISTAN   1.99E-02  4.68E-01 %
:CHARG:  CLM/ATOM   1381.9369 DISTAN   2.98E-01  2.15E-02 %
 
Step History
        DMIX         DMIXT        Red     Pred      Trust     Lambda    MagRel    MagAbs     Beta
  1   3.5000E-02   3.5000E-02 -1.00E+00  1.00E+00 -1.00E+01  1.00E+00  3.50E-02  3.50E-02  1.00E+00
  2   2.5000E-02   2.5000E-02 -1.00E+00  1.00E+00 -1.00E+01  1.00E+00  2.50E-02  1.23E-02  1.00E+00
:JACOBIANS    8.185E-04   2.465E-02
  
:TRUST:  Step 3.06E-02  Charge 7.50E-02 (e) CTO  2.50E-01 (e) PW  3.50E-01 (e)
:DIRM :  MEMORY  1/12 SCALE   1.000
:MIX  :   PRATT  REGULARIZATION:  1.00E-04 GREED: 0.03060  Expand 1.22  0.0306                
     
       CHARGES OF MIXED CHARGE DENSITY
:CTO   : INTERSTITIAL CHARGE =     7.011629
:CPC   : PW Pseudocharge     =    16.780970
:CTO001: CHARGE SPHERE  1    =    55.494185

:NEC03: NUCLEAR AND ELECTRONIC CHARGE    118.00000   118.00000

PW CHANGE     H    K    L      Current       Change    Residue
:PTO001:      0    0    0  4.19726230E-02 -5.147E-05 -3.467E-04
:PTO003:      0    2    0  1.24184711E-02 -1.101E-05  2.618E-05
:PTO004:     -1    1    0  6.18366580E-02 -6.603E-05 -1.157E-04
:PTO005:      0    2   -1 -7.23525056E-02  6.714E-05 -1.286E-04
:PTO006:      0    0   -2 -3.74056097E-02  3.777E-05  1.816E-07
:PTO007:     -1    1   -1 -7.96049857E-02  7.506E-05 -7.341E-05
:PTO008:      0    2   -2 -1.35261304E-02  1.256E-05  1.096E-05
:PTO009:     -1    1   -2 -7.10456315E-02  5.785E-05 -2.256E-05
:PTO011:     -1    3    0 -1.20848711E-02  1.031E-05  7.050E-05
:PTO012:     -1    3   -1 -5.54502483E-02  2.864E-05 -2.664E-05
:PTO013:      0    4    0 -1.04855069E-02  2.495E-06 -3.215E-05
:PTO014:      0    2   -3  2.39266964E-02 -8.961E-06 -5.499E-06

:ENE  : ********** TOTAL ENERGY IN Ry =       -36944.16128817

       TOTAL FORCE IN mRy/a.u. = |F|     Fx             Fy             Fz     with/without FOR in case.in2
:FOR001:   1.ATOM         31.366          0.000          0.000        -31.366 partial forces
       TOTAL FORCE WITH RESPECT TO GLOBAL CARTESIAN COORDINATES:
:FCA001:   1.ATOM                         0.000        -31.366          0.000 partial forces
       TOTAL FORCE WITH RESPECT TO THE GLOBAL COORDINATE SYSTEM:
:FGL001:   1.ATOM                 0.000000000   -31.366007483     0.000000000 partial forces
 Flat Integration
 New Mode for Coulomb Integral
 Consistent 3/8+Simpson combinations
 Extension of core to zero
 LDM version in phi
 Fifth-order quadrature in outwin


            ---------
:ITE019: 19. ITERATION
            ---------

:NATO :    1 INDEPENDENT AND    2 TOTAL ATOMS IN UNITCELL
       SUBSTANCE: aU                                                          

       LATTICE                      = CXY 
:POT  : POTENTIAL OPTION EX_LDA EC_LDA VX_LDA VC_LDA
:LAT  : LATTICE CONSTANTS=  6.83209 13.86404 11.96912    1.571    1.571    1.571
:VOL  : UNIT CELL VOLUME =     566.85996
       MODE OF CALCULATION IS       = RELA
       NON-SPINPOLARIZED CALCULATION
:IFFT  : FFT-parameters:   60  108   96 Factor: 2.00


   CONVERGENCE PARAMETER FOR PSEUDOCHARGE: NCON=  9
   MAXIMAL VALUE OF RMT(JATOM)*ABSK(NKK) : RK  =27.59644


:VKCOUL :  VK-COUL convergence: 0.181E-06
       ATOMNUMBER=  1 Pr1        VCOUL-ZERO = -0.79049E-01
:EFG001:                        EFG         =    -6.01353   *10**21  V / m**2
                               V20  TOT/SRF=    -5.20787    -0.01477
                               V22  TOT/SRF=     0.35957     0.00244
                               V22M TOT/SRF=     0.00000     0.00000
                               V21  TOT/SRF=     0.00000     0.00000
                               V21M TOT/SRF=     0.00000     0.00000

              3.36634    0.00000    0.00000        3.36634    0.00000    0.00000
              0.00000    2.64719    0.00000        0.00000    2.64719    0.00000
              0.00000    0.00000   -6.01353        0.00000    0.00000   -6.01353

         MAIN DIRECTIONS OF THE EFG   1.0000  0.0000  0.0000
                                      0.0000  1.0000  0.0000
                                      0.0000  0.0000  1.0000
:ANG001:  ANGLE WITH OLD X-AXIS =         0.0

:ETA001:                         ASYMM. ETA =     0.11959


     HELLMANN-FEYNMAN-FORCE IN mRy/a.u. = |F|  Fx       Fy             Fz
:FHF001:   1.ATOM   1096.060964585359      0.000000000000      0.000000000000  -1096.060964585359

:FIT001: LUSE= 13 SIGMA OF V-XC FIT FOR ATOM  1  0.5777829E-04
:FIT001: LUSE= 13 SIGMA OF V-XC FIT FOR ATOM  1  0.5777829E-04
:DEN  : DENSITY INTEGRAL  =        -14135.86982756   (Ry)
       ELS_POTENTIAL_AT Z=0 and Z=0.5:   0.63896   0.63896
       ELS_POTENTIAL_AT Y=0 and Y=0.5:   0.08605   0.08605
:VZERO:v0,v0c,v0x   0.10642   0.63896  -0.53253 v5,v5c,v5x   0.10642   0.63896  -0.53253
:VZERY:v0,v0c,v0x  -0.62812   0.08605  -0.71417 v5,v5c,v5x  -0.62812   0.08605  -0.71417
:VZERX:v0,v0c,v0x  -1.05398  -0.36261  -0.69137 v5,v5c,v5x  -1.05398  -0.36261  -0.69137
:LMAX-WF:   10   Non-Spherical LMAX:   4

          ATOMIC SPHERE DEPENDENT PARAMETERS FOR ATOM  Pr1       
:e__0001: OVERALL ENERGY PARAMETER IS    0.3026
          OVERALL BASIS SET ON ATOM IS LAPW
:E0_0001: E( 0)=    0.3026
             APW+lo
:E0_0001: E( 0)=   -2.1721   E(BOTTOM)=   -2.810   E(TOP)=   -1.534  4  5   168
             LOCAL ORBITAL
:E1_0001: E( 1)=    0.7026
             APW+lo
:E1_0001: E( 1)=   -0.7039   E(BOTTOM)=   -1.665   E(TOP)=    0.257  3  4   198
             LOCAL ORBITAL
:E3_0001: E( 3)=    0.4959   E(BOTTOM)=    0.284   E(TOP)=    0.708  0  1   116
             APW+lo
:E2_0001: E( 2)=    0.3026   E(BOTTOM)=    0.075   E(TOP)= -200.000  2 -1    99
             APW+lo

       K=   0.06250   0.00000   0.06250            1
:RKM  : MATRIX SIZE   530LOs:  40  RKM= 8.48  WEIGHT= 4.00  PGR:    
       EIGENVALUES ARE:
:EIG00001:      -2.1365301   -2.1290572   -0.8465659   -0.7992756   -0.7883705
:EIG00006:      -0.7835008   -0.7794213   -0.7790932    0.2721435    0.4188363
:EIG00011:       0.5121831    0.5129571    0.5131157    0.5149015    0.5166486
:EIG00016:       0.5258745    0.5280478    0.5287276    0.5307460    0.5324879
:EIG00021:       0.5352167    0.5383576    0.5393591    0.5423019    0.5710038
:EIG00026:       0.5820818    0.6356728    0.6632295    0.6707914    0.7114036
:EIG00031:       0.7260379    0.7905917    0.8332022    0.8669243    1.1004203
:EIG00036:       1.1581222    1.2461836    1.2501650    1.3861395    1.4389757
:EIG00041:       1.4674119    1.5682717    1.6213423    1.6460462    1.7110643
:EIG00046:       1.7925018    1.7966444    1.8247110    1.8955516    1.9661439
 
:EIG00051:       2.0155482    2.0681426    2.0889999    2.1310579    2.1541989
:EIG00056:       2.2382376    2.2779502    2.2968858    2.3815676    2.4112433
:EIG00061:       2.4704419    2.5078711    2.6182784    2.7036223    2.7225057
:EIG00066:       2.8066704    2.8353918    2.8497767    2.8644421    2.9496614
:EIG00071:       2.9621003    3.0055717    3.0295646    3.0586053    3.0702551
:EIG00076:       3.1122562    3.1522820    3.1817788    3.2114008    3.2303874
:EIG00081:       3.2715104    3.3182683    3.3275381    3.3605096    3.4174849
:EIG00086:       3.4428811    3.5096295    3.5186167    3.5491844    3.5571219
:EIG00091:       3.5910627    3.6059699    3.6549330    3.6584906    3.6624334
:EIG00096:       3.7258944    3.7415805    3.7505541    3.7636266    3.8431752
 
:EIG00101:       3.8892224    4.0138417    4.0188683    4.0705739    4.1094106
:EIG00106:       4.1274967    4.1548897    4.1579882    4.2081825    4.2338865
:EIG00111:       4.2920348    4.3146838    4.3286192    4.3538265    4.3689295
:EIG00116:       4.4381996    4.5059237    4.5431368    4.5505759    4.5721248
:EIG00121:       4.6083244    4.6888455    4.6943428    4.7273733    4.7838898
:EIG00126:       4.8362834    4.8495960    4.8887192    4.9401625    4.9568146
:EIG00131:       4.9870275    5.0253954    5.0615435    5.0828415    5.0930061
:EIG00136:       5.1436127    5.1887092    5.2357957    5.2480627    5.2790983
:EIG00141:       5.2912824    5.2934383    5.3419587    5.3943785    5.3945273
:EIG00146:       5.4184759    5.4407429    5.4473334    5.4531330    5.5450987
 
:EIG00151:       5.5474949    5.5824683    5.6550341    5.6774673    5.6950802
:EIG00156:       5.8034409    5.8715689    5.8817312    5.9376894    5.9420744
:EIG00161:       5.9761827    6.0535962    6.0879961    6.0902391    6.1023005
:EIG00166:       6.1662380    6.2081883    6.2116247    6.2382030    6.2520050
:EIG00171:       6.2714464    6.3379762    6.3491089    6.3706674    6.4173159
:EIG00176:       6.4271353    6.4609991    6.4799074    6.5188310    6.5288124
:EIG00181:       6.6076835    6.6194962    6.6282236    6.6596235    6.6846893
:EIG00186:       6.6965035    6.7113843    6.7787400    6.7877687    6.7946452
:EIG00191:       6.8479993    6.8570111    6.8992168    6.9151374    6.9417701
:EIG00196:       6.9563106    6.9691473    6.9990462    7.0008993    7.0407163
 
:EIG00201:       7.0717348    7.1252510    7.1291795    7.1329244    7.1800345
:EIG00206:       7.1938799    7.2128086    7.2676626    7.2936777    7.3210801
:EIG00211:       7.3287342    7.3705836    7.3737836    7.3943974    7.4057277
:EIG00216:       7.4324248    7.4457812    7.4527901    7.4803933    7.5189563
:EIG00221:       7.5470728    7.5912834    7.5928220    7.6004386    7.6042795
:EIG00226:       7.6174509    7.6459218    7.6533160    7.6918421    7.7493525
:EIG00231:       7.7568633    7.7932204    7.8408104    7.8410715    7.8510026
:EIG00236:       7.8599767    7.8993601    7.9085838    7.9222036    7.9656644
:EIG00241:       7.9728644    7.9927916
       ********************************************************

:KPT   :      NUMBER OF K-POINTS:   288
   0.0   0.0 angle (M,z), angle (M,x) deg
 
        SPIN-ORBIT EIGENVALUES:
     K=   0.06250   0.00000   0.06250            1
      MATRIX SIZE=  484   WEIGHT= 4.00
     EIGENVALUES ARE:
          -2.1365301   -2.1365301   -2.1290572   -2.1290572   -0.9520076
          -0.9520076   -0.9293669   -0.9293669   -0.7629467   -0.7629467
          -0.7207944   -0.7207944   -0.7187158   -0.7187158   -0.7130849
          -0.7130849    0.2721661    0.2721661    0.4187213    0.4187213
           0.5044697    0.5044697    0.5060433    0.5060433    0.5067428
           0.5067428    0.5077731    0.5077731    0.5098798    0.5098798
           0.5124328    0.5124329    0.5287251    0.5287251    0.5349904
           0.5349904    0.5378476    0.5378476    0.5386194    0.5386194

           0.5419454    0.5419454    0.5447278    0.5447278    0.5456379
           0.5456379    0.5483193    0.5483193    0.5719341    0.5719341
           0.5821013    0.5821013    0.6358790    0.6358791    0.6603866
           0.6603866    0.6731388    0.6731388    0.7119432    0.7119432
           0.7260090    0.7260090    0.7903887    0.7903887    0.8335107
           0.8335107    0.8670611    0.8670611    1.1004316    1.1004316
           1.1582969    1.1582969    1.2461478    1.2461478    1.2501977
           1.2501977    1.3856145    1.3856145    1.4381977    1.4381977

           1.4674520    1.4674520    1.5656249    1.5656249    1.6210967
           1.6210967    1.6467699    1.6467699    1.7117127    1.7117127
           1.7893107    1.7893107    1.7959647    1.7959647    1.8275552
           1.8275552    1.8959322    1.8959322    1.9655729    1.9655729
           2.0152347    2.0152347    2.0661143    2.0661143    2.0903201
           2.0903201    2.1328768    2.1328768    2.1548170    2.1548170
           2.2381506    2.2381506    2.2780649    2.2780649    2.2972375
           2.2972375    2.3814503    2.3814503    2.4110276    2.4110276

           2.4735685    2.4735685    2.5080346    2.5080346    2.6182098
           2.6182098    2.7037355    2.7037355    2.7225987    2.7225987
           2.8062313    2.8062313    2.8354066    2.8354066    2.8499498
           2.8499498    2.8646158    2.8646158    2.9498422    2.9498422
           2.9621671    2.9621671    3.0056263    3.0056263    3.0296114
           3.0296114    3.0579274    3.0579274    3.0712541    3.0712541
           3.1123711    3.1123711    3.1533942    3.1533942    3.1818536
           3.1818536    3.2114026    3.2114026    3.2307656    3.2307656

           3.2717203    3.2717203    3.3182839    3.3182839    3.3275896
           3.3275896    3.3606620    3.3606620    3.4175029    3.4175029
           3.4430053    3.4430053    3.5097233    3.5097233    3.5186030
           3.5186030    3.5491573    3.5491573    3.5571704    3.5571704
           3.5910714    3.5910714    3.6060118    3.6060118    3.6541853
           3.6541853    3.6587954    3.6587954    3.6625818    3.6625818
           3.7258544    3.7258544    3.7413016    3.7413016    3.7510274
           3.7510274    3.7637182    3.7637182    3.8432018    3.8432018

           3.8890276    3.8890276    4.0118661    4.0118661    4.0202201
           4.0202201    4.0714570    4.0714570    4.1092606    4.1092606
           4.1275700    4.1275700    4.1551804    4.1551804    4.1587132
           4.1587132    4.2083588    4.2083588    4.2339734    4.2339734
           4.2920699    4.2920699    4.3147207    4.3147207    4.3290347
           4.3290347    4.3539094    4.3539094    4.3689491    4.3689491
           4.4382149    4.4382149
       ********************************************************
:GAP (global)   :    0.0    Ry =     0.0   eV (metal)
:GAP (this spin):    0.0    Ry =     0.0   eV (metal)
         Bandranges (emin - emax) and occupancy:
:BAN00018:  18    0.268032    0.477794  1.00000000
:BAN00019:  19    0.370648    0.491717  1.00000000
:BAN00020:  20    0.370648    0.491717  1.00000000
:BAN00021:  21    0.461804    0.504470  1.00000000
:BAN00022:  22    0.461804    0.504470  1.00000000
:BAN00023:  23    0.493391    0.506438  1.00000000
:BAN00024:  24    0.493391    0.506438  1.00000000
:BAN00025:  25    0.500509    0.512415  0.81391683
:BAN00026:  26    0.500509    0.512415  0.81391667
:BAN00027:  27    0.506000    0.512945  0.18608346
:BAN00028:  28    0.506000    0.512945  0.18608303
:BAN00029:  29    0.508912    0.515339  0.00000000
:BAN00030:  30    0.508912    0.515339  0.00000000
:BAN00031:  31    0.511275    0.518604  0.00000000
:BAN00032:  32    0.511275    0.518604  0.00000000
:BAN00033:  33    0.514168    0.528943  0.00000000
        Energy to separate low and high energystates:    0.21803


:NOE  : NUMBER OF ELECTRONS          =   26.000

:FER  : F E R M I - ENERGY(TETRAH.M.)=   0.5083743284
:GMA  : POTENTIAL AND CHARGE CUT-OFF  12.00 Ry**.5

:POS001: ATOM   -1 X,Y,Z = 0.00000 0.89750 0.25000  MULT= 2  ZZ= 59.000  Pr1       

       LMMAX 16
       LM=   0 0  1 0  2 0  2 2  3 0  3 2  4 0  4 2  4 4  5 0  5 2  5 4  6 0  6 2  6 4  6 6

:CHA001: TOTAL VALENCE CHARGE INSIDE SPHERE   1 =   9.4833    (RMT=  2.3000 )
:PCS001: PARTIAL CHARGES SPHERE =  1 S,P,D,F,PX,PY,PZ,D-Z2,D-X2Y2,D-XY,D-XZ,D-YZ 
:QTL001: 1.9373 5.0187 0.4337 2.0934 1.6702 1.6706 1.6779 0.0791 0.0794 0.0990 0.0811 0.0952
        Q-s-low E-s-low   Q-p-low E-p-low   Q-d-low E-d-low   Q-f-low E-f-low
:EPL001:  1.8692 -2.1293    4.9599 -0.8128    0.0007 -0.7989    0.0002 -0.8065
        Q-s-hi  E-s-hi    Q-p-hi  E-p-hi    Q-d-hi  E-d-hi    Q-f-hi  E-f-hi 
:EPH001:  0.0682  0.4061    0.0589  0.4455    0.4331  0.4666    2.0932  0.4997

                      VXX         VYY         VZZ       UP TO R
:VZZ001:             4.27414     2.15382    -6.42796       2.300

:CHA  : TOTAL VALENCE CHARGE INSIDE UNIT CELL =      26.000000

:SUM  : SUM OF EIGENVALUES =         -13.539258783


        1.ATOM      Pr1                  14 CORE STATES
       CORE-FORCE in mRy/a.u. = |F|      Fx             Fy             Fz
:FCO001:   1.ATOM   1064.583004671702      0.000000000000      0.000000000000   1064.583004671702

:1S 001: 1S               -3067.080393173 Ry
:2S 001: 2S                -492.830142767 Ry
:2PP001: 2P*               -465.930084378 Ry
:2P 001: 2P                -430.532297509 Ry
:3S 001: 3S                -105.913365024 Ry
:3PP001: 3P*                -94.451522267 Ry
:3P 001: 3P                 -87.443471205 Ry
:3DD001: 3D*                -67.371339426 Ry
:3D 001: 3D                 -65.859673704 Ry
:4S 001: 4S                 -20.596172785 Ry
:4PP001: 4P*                -16.303707616 Ry
:4P 001: 4P                 -14.777321296 Ry
:4DD001: 4D*                 -7.712346614 Ry
:4D 001: 4D                  -7.443306819 Ry
:CINT001 Core Integral Atom   1   45.998466

       DENSITY AT NUCLEUS
        JATOM        VALENCE       SEMI-CORE          CORE           TOTAL
:RTO001:   1      644.741680        0.000000   656823.963536   657468.705215
     
       CHARGES OF NEW CHARGE DENSITY
:NTO   : INTERSTITIAL CHARGE =     7.033337
:NPC   : PW Pseudocharge     =    16.802461
:NTO001: CHARGE SPHERE  1    =    55.481797

:NEC01: NUCLEAR AND ELECTRONIC CHARGE    118.00000   117.99693
     
       CHARGES OF OLD CHARGE DENSITY
:OTO   : INTERSTITIAL CHARGE =     7.011629
:OPC   : PW Pseudocharge     =    16.780970
:OTO001: CHARGE SPHERE  1    =    55.494185

:NEC02: NUCLEAR AND ELECTRONIC CHARGE    118.00000   118.00000
     
       CONVERGENCE TEST
:DTO001: DIFFERENCE IN SPHERE  1 =  0.0187244

:DIS  :  CHARGE DISTANCE       ( 0.0187244 for atom    1 spin 1)      0.0187244
 PW Mixed is          580
 
******************************************************
* MULTISECANT MIXING VER9 RELEASE 10.4.0              *
* Slow Mode, cautious                                *
* Fixed density scale                                *
* Regularization       1.000E-04                     *
* Step Trust Radius    0.75000                       *
* Trust Upper Limit    2.000E+00                     *
* Max Number of Memory Steps   12                    *
******************************************************
 
:PWTMP   4.6493E+02  1.9467E+02  5.6686E+02
:PLANE:  PW TOTAL      4.2464 DISTAN   1.11E-02  2.61E-01 %
:CHARG:  CLM/ATOM   1381.9375 DISTAN   2.02E-01  1.46E-02 %
 
Step History
        DMIX         DMIXT        Red     Pred      Trust     Lambda    MagRel    MagAbs     Beta
  1   3.5000E-02   3.5000E-02 -1.00E+00  1.00E+00 -1.00E+01  1.00E+00  3.50E-02  3.50E-02  1.00E+00
  2   2.5000E-02   2.5000E-02  6.06E-01  1.00E+00 -1.00E+01  1.00E+00  2.50E-02  1.23E-02  1.00E+00
  3   3.0602E-02   3.0602E-02 -1.00E+00  1.00E+00 -1.00E+01  1.00E+00  3.06E-02  9.12E-03  1.00E+00
:JACOBIANS    1.371E-03   3.750E-02
  
:NORMS:  1/Froebius, Min, Max, Used   0.5997E-01  0.2198E-01  0.5997E-01  0.5997E-01
:INFO :  Number of Memory Steps    2 Skipping    0
:INFO :  SLambda=    0.3486175782  Max    0.3486175782
:PREDicted Charge, CTotal, PW Trust    3.898E-03   7.795E-03   8.794E-03
:PREDicted DMix, Beta, BLim   1.7378E-02  5.2432E-01  2.0155E-01

Eigenvalues, unscaled except for SY+YY
   #     SY Real        SY Imag          SS             YY         SY+YY Real      SY+YY Imag
   1  -3.982925E-15   0.000000E+00   7.192834E-03   1.999791E+00   2.083167E-04   0.000000E+00
   2   1.025120E-01   0.000000E+00   0.000000E+00   2.088394E-04   2.035529E+00   0.000000E+00
 
:INFO :  Singular value  2.036E+00 Weight  1.000E+00 Projection -1.673E-03
:INFO :  Singular value  2.083E-04 Weight  5.204E-01 Projection  4.716E+00
:RANK :  ACTIVE   1.52/2  =  76.02 % ; YY RANK   1.52/2  =  76.08 %
 
:DLIM :  Beta Active  8.000E-01
:BLIM :  VZERO Control Off
:TRUST:  Step 3.29E-01  Charge 7.50E-02 (e) CTO  2.50E-01 (e) PW  3.50E-01 (e)
:DIRM :  MEMORY  2/12 SCALE   1.000 RED  0.68 PRED  1.00 NEXT  0.85 BETA  0.80
:TRAVE:  Charge 7.00E-04 (e) CTO  1.40E-03 (e) PW  1.46E-03 (e)
:DIRP :  |MSR1|= 7.708E-04 |PRATT|= 1.107E-02 ANGLE=  36.9 DEGREES
:DIRQ :  |MSR1|= 3.649E-03 |PRATT|= 2.021E-01 ANGLE=  29.9 DEGREES
:DIRT :  |MSR1|= 3.730E-03 |PRATT|= 2.024E-01 ANGLE=  31.1 DEGREES
:MIX  :   MSD1   REGULARIZATION:  2.00E-04 GREED: 0.02384  Newton 1.00  0.0184                
     
       CHARGES OF MIXED CHARGE DENSITY
:CTO   : INTERSTITIAL CHARGE =     7.013029
:CPC   : PW Pseudocharge     =    16.783813
:CTO001: CHARGE SPHERE  1    =    55.493486

:NEC03: NUCLEAR AND ELECTRONIC CHARGE    118.00000   118.00000

PW CHANGE     H    K    L      Current       Change    Residue
:PTO001:      0    0    0  4.19801080E-02  7.485E-06  9.456E-05
:PTO003:      0    2    0  1.24194507E-02  9.796E-07  2.482E-05
:PTO004:     -1    1    0  6.18439257E-02  7.268E-06  2.362E-05
:PTO005:      0    2   -1 -7.23627457E-02 -1.024E-05 -1.509E-04
:PTO006:      0    0   -2 -3.74114596E-02 -5.850E-06 -5.675E-05
:PTO007:     -1    1   -1 -7.96150112E-02 -1.003E-05 -9.437E-05
:PTO008:      0    2   -2 -1.35277844E-02 -1.654E-06  8.838E-07
:PTO009:     -1    1   -2 -7.10549720E-02 -9.341E-06 -3.776E-05
:PTO011:     -1    3    0 -1.20856306E-02 -7.595E-07  4.264E-05
:PTO012:     -1    3   -1 -5.54539198E-02 -3.672E-06 -1.181E-05
:PTO013:      0    4    0 -1.04855207E-02 -1.377E-08 -5.002E-06
:PTO014:      0    2   -3  2.39276764E-02  9.800E-07 -9.494E-06

:ENE  : ********** TOTAL ENERGY IN Ry =       -36944.16061306

       TOTAL FORCE IN mRy/a.u. = |F|     Fx             Fy             Fz     with/without FOR in case.in2
:FOR001:   1.ATOM         31.478          0.000          0.000        -31.478 partial forces
       TOTAL FORCE WITH RESPECT TO GLOBAL CARTESIAN COORDINATES:
:FCA001:   1.ATOM                         0.000        -31.478          0.000 partial forces
       TOTAL FORCE WITH RESPECT TO THE GLOBAL COORDINATE SYSTEM:
:FGL001:   1.ATOM                 0.000000000   -31.477959914     0.000000000 partial forces
 Flat Integration
 New Mode for Coulomb Integral
 Consistent 3/8+Simpson combinations
 Extension of core to zero
 LDM version in phi
 Fifth-order quadrature in outwin


            ---------
:ITE020: 20. ITERATION
            ---------

:NATO :    1 INDEPENDENT AND    2 TOTAL ATOMS IN UNITCELL
       SUBSTANCE: aU                                                          

       LATTICE                      = CXY 
:POT  : POTENTIAL OPTION EX_LDA EC_LDA VX_LDA VC_LDA
:LAT  : LATTICE CONSTANTS=  6.83209 13.86404 11.96912    1.571    1.571    1.571
:VOL  : UNIT CELL VOLUME =     566.85996
       MODE OF CALCULATION IS       = RELA
       NON-SPINPOLARIZED CALCULATION
:IFFT  : FFT-parameters:   60  108   96 Factor: 2.00


   CONVERGENCE PARAMETER FOR PSEUDOCHARGE: NCON=  9
   MAXIMAL VALUE OF RMT(JATOM)*ABSK(NKK) : RK  =27.59644


:VKCOUL :  VK-COUL convergence: 0.180E-06
       ATOMNUMBER=  1 Pr1        VCOUL-ZERO = -0.79083E-01
:EFG001:                        EFG         =    -6.05937   *10**21  V / m**2
                               V20  TOT/SRF=    -5.24757    -0.01492
                               V22  TOT/SRF=     0.36205     0.00252
                               V22M TOT/SRF=     0.00000     0.00000
                               V21  TOT/SRF=     0.00000     0.00000
                               V21M TOT/SRF=     0.00000     0.00000

              3.39173    0.00000    0.00000        3.39173    0.00000    0.00000
              0.00000    2.66764    0.00000        0.00000    2.66764    0.00000
              0.00000    0.00000   -6.05937        0.00000    0.00000   -6.05937

         MAIN DIRECTIONS OF THE EFG   1.0000  0.0000  0.0000
                                      0.0000  1.0000  0.0000
                                      0.0000  0.0000  1.0000
:ANG001:  ANGLE WITH OLD X-AXIS =         0.0

:ETA001:                         ASYMM. ETA =     0.11950


     HELLMANN-FEYNMAN-FORCE IN mRy/a.u. = |F|  Fx       Fy             Fz
:FHF001:   1.ATOM   1097.684889351040      0.000000000000      0.000000000000  -1097.684889351040

:FIT001: LUSE= 13 SIGMA OF V-XC FIT FOR ATOM  1  0.5747809E-04
:FIT001: LUSE= 13 SIGMA OF V-XC FIT FOR ATOM  1  0.5747809E-04
:DEN  : DENSITY INTEGRAL  =        -14135.74106254   (Ry)
       ELS_POTENTIAL_AT Z=0 and Z=0.5:   0.63908   0.63908
       ELS_POTENTIAL_AT Y=0 and Y=0.5:   0.08605   0.08605
:VZERO:v0,v0c,v0x   0.10651   0.63908  -0.53257 v5,v5c,v5x   0.10651   0.63908  -0.53257
:VZERY:v0,v0c,v0x  -0.62816   0.08605  -0.71421 v5,v5c,v5x  -0.62816   0.08605  -0.71421
:VZERX:v0,v0c,v0x  -1.05410  -0.36268  -0.69141 v5,v5c,v5x  -1.05410  -0.36268  -0.69141
:LMAX-WF:   10   Non-Spherical LMAX:   4

          ATOMIC SPHERE DEPENDENT PARAMETERS FOR ATOM  Pr1       
:e__0001: OVERALL ENERGY PARAMETER IS    0.3064
          OVERALL BASIS SET ON ATOM IS LAPW
:E0_0001: E( 0)=    0.3064
             APW+lo
:E0_0001: E( 0)=   -2.1726   E(BOTTOM)=   -2.811   E(TOP)=   -1.534  4  5   166
             LOCAL ORBITAL
:E1_0001: E( 1)=    0.7064
             APW+lo
:E1_0001: E( 1)=   -0.7043   E(BOTTOM)=   -1.665   E(TOP)=    0.256  3  4   196
             LOCAL ORBITAL
:E3_0001: E( 3)=    0.4951   E(BOTTOM)=    0.283   E(TOP)=    0.707  0  1   116
             APW+lo
:E2_0001: E( 2)=    0.3064   E(BOTTOM)=    0.075   E(TOP)= -200.000  2 -1   100
             APW+lo

       K=   0.06250   0.00000   0.06250            1
:RKM  : MATRIX SIZE   530LOs:  40  RKM= 8.48  WEIGHT= 4.00  PGR:    
       EIGENVALUES ARE:
:EIG00001:      -2.1369469   -2.1294779   -0.8469012   -0.7995248   -0.7886228
:EIG00006:      -0.7838482   -0.7797926   -0.7794423    0.2721752    0.4188305
:EIG00011:       0.5115697    0.5122524    0.5124454    0.5142419    0.5160186
:EIG00016:       0.5250852    0.5272968    0.5279414    0.5299579    0.5318046
:EIG00021:       0.5344815    0.5376769    0.5386144    0.5415611    0.5707481
:EIG00026:       0.5819514    0.6355564    0.6631553    0.6706800    0.7113235
:EIG00031:       0.7259462    0.7904489    0.8330425    0.8667655    1.1002801
:EIG00036:       1.1581125    1.2461769    1.2501668    1.3861369    1.4389740
:EIG00041:       1.4673893    1.5682365    1.6213004    1.6460031    1.7109872
:EIG00046:       1.7924594    1.7966378    1.8246777    1.8955240    1.9660500
 
:EIG00051:       2.0155113    2.0681011    2.0889889    2.1309664    2.1541531
:EIG00056:       2.2382368    2.2778200    2.2968880    2.3815370    2.4111838
:EIG00061:       2.4703558    2.5078472    2.6182158    2.7035446    2.7225091
:EIG00066:       2.8066528    2.8353353    2.8496947    2.8644067    2.9496414
:EIG00071:       2.9621194    3.0055688    3.0295469    3.0585850    3.0702543
:EIG00076:       3.1121959    3.1522843    3.1817348    3.2114131    3.2303669
:EIG00081:       3.2714897    3.3183069    3.3275432    3.3604845    3.4175020
:EIG00086:       3.4429090    3.5096507    3.5186570    3.5492204    3.5570906
:EIG00091:       3.5910982    3.6059637    3.6548794    3.6584708    3.6624173
:EIG00096:       3.7259104    3.7415584    3.7505830    3.7636578    3.8432157
 
:EIG00101:       3.8891722    4.0138161    4.0188134    4.0705792    4.1094098
:EIG00106:       4.1274890    4.1548916    4.1580137    4.2081761    4.2338884
:EIG00111:       4.2920065    4.3147193    4.3285744    4.3538925    4.3689006
:EIG00116:       4.4381367    4.5057733    4.5429918    4.5505643    4.5720057
:EIG00121:       4.6083256    4.6886770    4.6942932    4.7273385    4.7839175
:EIG00126:       4.8361791    4.8495319    4.8886875    4.9401571    4.9567342
:EIG00131:       4.9870427    5.0253904    5.0615041    5.0828207    5.0929417
:EIG00136:       5.1436104    5.1886762    5.2358109    5.2479202    5.2790544
:EIG00141:       5.2912175    5.2933694    5.3419031    5.3943368    5.3944199
:EIG00146:       5.4184651    5.4406779    5.4473260    5.4531494    5.5449322
 
:EIG00151:       5.5475009    5.5824834    5.6550304    5.6773926    5.6950939
:EIG00156:       5.8034591    5.8715549    5.8816258    5.9376462    5.9420132
:EIG00161:       5.9761551    6.0535873    6.0878715    6.0901897    6.1022427
:EIG00166:       6.1661487    6.2081209    6.2115547    6.2381542    6.2519057
:EIG00171:       6.2713458    6.3378778    6.3490158    6.3704919    6.4171173
:EIG00176:       6.4270188    6.4608743    6.4796790    6.5187535    6.5286538
:EIG00181:       6.6075632    6.6193555    6.6281558    6.6596151    6.6845456
:EIG00186:       6.6964661    6.7113681    6.7786372    6.7876866    6.7944900
:EIG00191:       6.8479177    6.8569174    6.8991163    6.9150555    6.9416178
:EIG00196:       6.9561782    6.9691199    6.9990152    7.0008265    7.0406169
 
:EIG00201:       7.0717252    7.1252284    7.1291455    7.1327979    7.1798067
:EIG00206:       7.1937487    7.2127573    7.2676243    7.2936233    7.3209972
:EIG00211:       7.3286842    7.3705031    7.3737377    7.3943178    7.4056674
:EIG00216:       7.4323427    7.4457071    7.4527428    7.4803823    7.5189546
:EIG00221:       7.5470556    7.5912845    7.5927984    7.6003977    7.6042638
:EIG00226:       7.6174097    7.6458868    7.6532871    7.6918100    7.7492710
:EIG00231:       7.7568074    7.7932009    7.8408301    7.8409749    7.8509351
:EIG00236:       7.8598823    7.8992517    7.9085613    7.9221724    7.9656417
:EIG00241:       7.9728362    7.9927078
       ********************************************************

:KPT   :      NUMBER OF K-POINTS:   288
   0.0   0.0 angle (M,z), angle (M,x) deg
 
        SPIN-ORBIT EIGENVALUES:
     K=   0.06250   0.00000   0.06250            1
      MATRIX SIZE=  484   WEIGHT= 4.00
     EIGENVALUES ARE:
          -2.1369469   -2.1369469   -2.1294779   -2.1294779   -0.9523445
          -0.9523445   -0.9297106   -0.9297106   -0.7632405   -0.7632405
          -0.7210958   -0.7210958   -0.7189994   -0.7189994   -0.7134328
          -0.7134328    0.2721978    0.2721978    0.4187149    0.4187149
           0.5037752    0.5037753    0.5053801    0.5053801    0.5060618
           0.5060619    0.5070821    0.5070822    0.5091609    0.5091609
           0.5116352    0.5116352    0.5280874    0.5280874    0.5342827
           0.5342827    0.5371436    0.5371436    0.5378674    0.5378674

           0.5412127    0.5412127    0.5440523    0.5440523    0.5448995
           0.5448995    0.5475934    0.5475934    0.5716454    0.5716454
           0.5819559    0.5819559    0.6357538    0.6357538    0.6603018
           0.6603018    0.6730373    0.6730373    0.7118635    0.7118635
           0.7259168    0.7259168    0.7902458    0.7902458    0.8333514
           0.8333514    0.8669024    0.8669024    1.1002917    1.1002917
           1.1582870    1.1582870    1.2461412    1.2461412    1.2501993
           1.2501993    1.3856115    1.3856115    1.4381956    1.4381956

           1.4674294    1.4674294    1.5655885    1.5655885    1.6210558
           1.6210558    1.6467272    1.6467272    1.7116360    1.7116360
           1.7892841    1.7892841    1.7959376    1.7959376    1.8275255
           1.8275255    1.8959024    1.8959024    1.9654806    1.9654806
           2.0151974    2.0151974    2.0660744    2.0660744    2.0903063
           2.0903063    2.1327904    2.1327904    2.1547691    2.1547691
           2.2381471    2.2381471    2.2779400    2.2779400    2.2972365
           2.2972365    2.3814192    2.3814192    2.4109675    2.4109675

           2.4734837    2.4734837    2.5080105    2.5080105    2.6181471
           2.6181471    2.7036582    2.7036582    2.7226020    2.7226020
           2.8062122    2.8062122    2.8353502    2.8353502    2.8498694
           2.8498694    2.8645805    2.8645805    2.9498225    2.9498225
           2.9621860    2.9621860    3.0056234    3.0056234    3.0295935
           3.0295935    3.0579085    3.0579085    3.0712516    3.0712516
           3.1123110    3.1123110    3.1533963    3.1533963    3.1818097
           3.1818097    3.2114147    3.2114147    3.2307458    3.2307458

           3.2716996    3.2716996    3.3183224    3.3183224    3.3275945
           3.3275945    3.3606371    3.3606371    3.4175200    3.4175200
           3.4430333    3.4430333    3.5097445    3.5097445    3.5186433
           3.5186433    3.5491932    3.5491932    3.5571392    3.5571392
           3.5911068    3.5911068    3.6060056    3.6060056    3.6541336
           3.6541336    3.6587746    3.6587746    3.6625654    3.6625654
           3.7258702    3.7258702    3.7412815    3.7412815    3.7510539
           3.7510539    3.7637494    3.7637494    3.8432422    3.8432422

           3.8889773    3.8889773    4.0118362    4.0118362    4.0201709
           4.0201709    4.0714614    4.0714614    4.1092591    4.1092591
           4.1275622    4.1275622    4.1551892    4.1551892    4.1587327
           4.1587327    4.2083522    4.2083522    4.2339755    4.2339755
           4.2920414    4.2920414    4.3147550    4.3147550    4.3289911
           4.3289911    4.3539752    4.3539752    4.3689202    4.3689202
           4.4381519    4.4381519
       ********************************************************
:GAP (global)   :    0.0    Ry =     0.0   eV (metal)
:GAP (this spin):    0.0    Ry =     0.0   eV (metal)
         Bandranges (emin - emax) and occupancy:
:BAN00018:  18    0.268064    0.477525  1.00000000
:BAN00019:  19    0.370666    0.491398  1.00000000
:BAN00020:  20    0.370666    0.491398  1.00000000
:BAN00021:  21    0.461733    0.503775  1.00000000
:BAN00022:  22    0.461733    0.503775  1.00000000
:BAN00023:  23    0.493033    0.505761  1.00000000
:BAN00024:  24    0.493033    0.505761  1.00000000
:BAN00025:  25    0.499918    0.511680  0.81373210
:BAN00026:  26    0.499918    0.511680  0.81373189
:BAN00027:  27    0.505298    0.512210  0.18626821
:BAN00028:  28    0.505298    0.512210  0.18626779
:BAN00029:  29    0.508191    0.514709  0.00000000
:BAN00030:  30    0.508191    0.514709  0.00000000
:BAN00031:  31    0.510526    0.518035  0.00000000
:BAN00032:  32    0.510526    0.518035  0.00000000
:BAN00033:  33    0.513452    0.528309  0.00000000
        Energy to separate low and high energystates:    0.21806


:NOE  : NUMBER OF ELECTRONS          =   26.000

:FER  : F E R M I - ENERGY(TETRAH.M.)=   0.5076776581
:GMA  : POTENTIAL AND CHARGE CUT-OFF  12.00 Ry**.5

:POS001: ATOM   -1 X,Y,Z = 0.00000 0.89750 0.25000  MULT= 2  ZZ= 59.000  Pr1       

       LMMAX 16
       LM=   0 0  1 0  2 0  2 2  3 0  3 2  4 0  4 2  4 4  5 0  5 2  5 4  6 0  6 2  6 4  6 6

:CHA001: TOTAL VALENCE CHARGE INSIDE SPHERE   1 =   9.4960    (RMT=  2.3000 )
:PCS001: PARTIAL CHARGES SPHERE =  1 S,P,D,F,PX,PY,PZ,D-Z2,D-X2Y2,D-XY,D-XZ,D-YZ 
:QTL001: 1.9373 5.0186 0.4301 2.1099 1.6702 1.6706 1.6778 0.0782 0.0787 0.0985 0.0803 0.0943
        Q-s-low E-s-low   Q-p-low E-p-low   Q-d-low E-d-low   Q-f-low E-f-low
:EPL001:  1.8692 -2.1297    4.9602 -0.8131    0.0007 -0.7993    0.0002 -0.8069
        Q-s-hi  E-s-hi    Q-p-hi  E-p-hi    Q-d-hi  E-d-hi    Q-f-hi  E-f-hi 
:EPH001:  0.0681  0.4060    0.0584  0.4450    0.4294  0.4662    2.1097  0.4991

                      VXX         VYY         VZZ       UP TO R
:VZZ001:             3.92463     1.93875    -5.86338       2.300

:CHA  : TOTAL VALENCE CHARGE INSIDE UNIT CELL =      26.000000

:SUM  : SUM OF EIGENVALUES =         -13.547980119


        1.ATOM      Pr1                  14 CORE STATES
       CORE-FORCE in mRy/a.u. = |F|      Fx             Fy             Fz
:FCO001:   1.ATOM   1065.970350050803      0.000000000000      0.000000000000   1065.970350050803

:1S 001: 1S               -3067.081974332 Ry
:2S 001: 2S                -492.831686207 Ry
:2PP001: 2P*               -465.931636268 Ry
:2P 001: 2P                -430.533846204 Ry
:3S 001: 3S                -105.914800436 Ry
:3PP001: 3P*                -94.452964739 Ry
:3P 001: 3P                 -87.444904251 Ry
:3DD001: 3D*                -67.372793285 Ry
:3D 001: 3D                 -65.861124779 Ry
:4S 001: 4S                 -20.597267855 Ry
:4PP001: 4P*                -16.304784792 Ry
:4P 001: 4P                 -14.778369557 Ry
:4DD001: 4D*                 -7.713345758 Ry
:4D 001: 4D                  -7.444296230 Ry
:CINT001 Core Integral Atom   1   45.998467

       DENSITY AT NUCLEUS
        JATOM        VALENCE       SEMI-CORE          CORE           TOTAL
:RTO001:   1      644.761281        0.000000   656824.040165   657468.801446
     
       CHARGES OF NEW CHARGE DENSITY
:NTO   : INTERSTITIAL CHARGE =     7.008082
:NPC   : PW Pseudocharge     =    16.796998
:NTO001: CHARGE SPHERE  1    =    55.494425

:NEC01: NUCLEAR AND ELECTRONIC CHARGE    118.00000   117.99693
     
       CHARGES OF OLD CHARGE DENSITY
:OTO   : INTERSTITIAL CHARGE =     7.013029
:OPC   : PW Pseudocharge     =    16.783813
:OTO001: CHARGE SPHERE  1    =    55.493486

:NEC02: NUCLEAR AND ELECTRONIC CHARGE    118.00000   118.00000
     
       CONVERGENCE TEST
:DTO001: DIFFERENCE IN SPHERE  1 =  0.0147043

:DIS  :  CHARGE DISTANCE       ( 0.0147043 for atom    1 spin 1)      0.0147043
 PW Mixed is          580
 
******************************************************
* MULTISECANT MIXING VER9 RELEASE 10.4.0              *
* Slow Mode, cautious                                *
* Fixed density scale                                *
* Regularization       1.000E-04                     *
* Step Trust Radius    0.75000                       *
* Trust Upper Limit    2.000E+00                     *
* Max Number of Memory Steps   12                    *
******************************************************
 
:PWTMP   4.6493E+02  1.9467E+02  5.6686E+02
:PLANE:  PW TOTAL      4.2470 DISTAN   9.78E-03  2.30E-01 %
:CHARG:  CLM/ATOM   1381.9372 DISTAN   1.99E-01  1.44E-02 %
 
Step History
        DMIX         DMIXT        Red     Pred      Trust     Lambda    MagRel    MagAbs     Beta
  1   3.5000E-02   3.5000E-02 -1.00E+00  1.00E+00 -1.00E+01  1.00E+00  3.50E-02  3.50E-02  1.00E+00
  2   2.5000E-02   2.5000E-02  6.06E-01  1.00E+00 -1.00E+01  1.00E+00  2.50E-02  1.23E-02  1.00E+00
  3   3.0602E-02   3.0602E-02  6.79E-01  1.00E+00 -1.00E+01  3.49E-01  3.06E-02  9.12E-03  1.00E+00
  4   2.3839E-02   2.3839E-02 -1.00E+00  8.50E-01  3.29E-01  1.00E+00  1.84E-02  3.73E-03  8.00E-01
:JACOBIANS    1.709E-03   1.245E-01
  
:NORMS:  1/Froebius, Min, Max, Used   0.8242E-01  0.6550E-01  0.1827E+00  0.9492E-01
:INFO :  Number of Memory Steps    3 Skipping    0
:INFO :  SLambda=    2.5019644144  Max    2.5019644144
:PREDicted Charge, CTotal, PW Trust    1.250E-03   2.500E-03   1.648E-03
:PREDicted DMix, Beta, BLim   1.6440E-01  4.9913E+00  1.5897E-01

Eigenvalues, unscaled except for SY+YY
   #     SY Real        SY Imag          SS             YY         SY+YY Real      SY+YY Imag
   1   1.398549E-01   0.000000E+00   1.210648E-02   2.821648E+00   3.171690E+00   0.000000E+00
   2   9.705954E-16   0.000000E+00   8.272452E-03   1.781105E-01   2.548035E-04   0.000000E+00
   3   2.673228E-02   0.000000E+00   0.000000E+00   2.413951E-04   2.448507E-01   0.000000E+00
 
:INFO :  Singular value  3.172E+00 Weight  1.000E+00 Projection -1.494E-02
:INFO :  Singular value  2.449E-01 Weight  1.000E+00 Projection -3.208E-01
:INFO :  Singular value  2.548E-04 Weight  4.492E-01 Projection -4.749E+00
:RANK :  ACTIVE   2.45/3  =  81.64 % ; YY RANK   2.42/3  =  80.75 %
 
:BLIM :  VZERO Control Off
:TRUST:  Step 2.13E-01  Charge 7.50E-02 (e) CTO  2.50E-01 (e) PW  3.50E-01 (e)
:DIRM :  MEMORY  3/12 SCALE   1.000 RED  0.99 PRED  0.85 NEXT  0.70 
:TRAVE:  Charge 9.69E-04 (e) CTO  1.94E-03 (e) PW  1.30E-03 (e)
:DIRP :  |MSR1|= 1.516E-03 |PRATT|= 9.781E-03 ANGLE=  38.1 DEGREES
:DIRQ :  |MSR1|= 3.961E-02 |PRATT|= 1.992E-01 ANGLE=  16.6 DEGREES
:DIRT :  |MSR1|= 3.964E-02 |PRATT|= 1.995E-01 ANGLE=  16.7 DEGREES
:MIX  :   MSE1   REGULARIZATION:  2.82E-04 GREED: 0.05960  Newton 1.00  0.1987                
     
       CHARGES OF MIXED CHARGE DENSITY
:CTO   : INTERSTITIAL CHARGE =     7.015507
:CPC   : PW Pseudocharge     =    16.784643
:CTO001: CHARGE SPHERE  1    =    55.492247

:NEC03: NUCLEAR AND ELECTRONIC CHARGE    118.00000   118.00000

PW CHANGE     H    K    L      Current       Change    Residue
:PTO001:      0    0    0  4.19859433E-02  5.835E-06  3.292E-05
:PTO003:      0    2    0  1.24150097E-02 -4.441E-06  2.809E-05
:PTO004:     -1    1    0  6.18274476E-02 -1.648E-05  9.535E-06
:PTO005:      0    2   -1 -7.23756302E-02 -1.288E-05 -1.517E-04
:PTO006:      0    0   -2 -3.74161207E-02 -4.661E-06 -4.379E-05
:PTO007:     -1    1   -1 -7.96113045E-02  3.707E-06 -9.088E-05
:PTO008:      0    2   -2 -1.35278403E-02 -5.593E-08  1.042E-06
:PTO009:     -1    1   -2 -7.10663886E-02 -1.142E-05 -2.755E-05
:PTO011:     -1    3    0 -1.20799326E-02  5.698E-06  4.452E-05
:PTO012:     -1    3   -1 -5.54559085E-02 -1.989E-06 -2.258E-05
:PTO013:      0    4    0 -1.04835740E-02  1.947E-06 -1.218E-05
:PTO014:      0    2   -3  2.39235944E-02 -4.082E-06 -1.144E-05

:ENE  : ********** TOTAL ENERGY IN Ry =       -36944.16062572

       TOTAL FORCE IN mRy/a.u. = |F|     Fx             Fy             Fz     with/without FOR in case.in2
:FOR001:   1.ATOM         31.715          0.000          0.000        -31.715 partial forces
       TOTAL FORCE WITH RESPECT TO GLOBAL CARTESIAN COORDINATES:
:FCA001:   1.ATOM                         0.000        -31.715          0.000 partial forces
       TOTAL FORCE WITH RESPECT TO THE GLOBAL COORDINATE SYSTEM:
:FGL001:   1.ATOM                 0.000000000   -31.714539300     0.000000000 partial forces
 Flat Integration
 New Mode for Coulomb Integral
 Consistent 3/8+Simpson combinations
 Extension of core to zero
 LDM version in phi
 Fifth-order quadrature in outwin


            ---------
:ITE021: 21. ITERATION
            ---------

:NATO :    1 INDEPENDENT AND    2 TOTAL ATOMS IN UNITCELL
       SUBSTANCE: aU                                                          

       LATTICE                      = CXY 
:POT  : POTENTIAL OPTION EX_LDA EC_LDA VX_LDA VC_LDA
:LAT  : LATTICE CONSTANTS=  6.83209 13.86404 11.96912    1.571    1.571    1.571
:VOL  : UNIT CELL VOLUME =     566.85996
       MODE OF CALCULATION IS       = RELA
       NON-SPINPOLARIZED CALCULATION
:IFFT  : FFT-parameters:   60  108   96 Factor: 2.00


   CONVERGENCE PARAMETER FOR PSEUDOCHARGE: NCON=  9
   MAXIMAL VALUE OF RMT(JATOM)*ABSK(NKK) : RK  =27.59644


:VKCOUL :  VK-COUL convergence: 0.174E-06
       ATOMNUMBER=  1 Pr1        VCOUL-ZERO = -0.79250E-01
:EFG001:                        EFG         =    -6.24820   *10**21  V / m**2
                               V20  TOT/SRF=    -5.41110    -0.01530
                               V22  TOT/SRF=     0.37098     0.00340
                               V22M TOT/SRF=     0.00000     0.00000
                               V21  TOT/SRF=     0.00000     0.00000
                               V21M TOT/SRF=     0.00000     0.00000

              3.49507    0.00000    0.00000        3.49507    0.00000    0.00000
              0.00000    2.75312    0.00000        0.00000    2.75312    0.00000
              0.00000    0.00000   -6.24820        0.00000    0.00000   -6.24820

         MAIN DIRECTIONS OF THE EFG   1.0000  0.0000  0.0000
                                      0.0000  1.0000  0.0000
                                      0.0000  0.0000  1.0000
:ANG001:  ANGLE WITH OLD X-AXIS =         0.0

:ETA001:                         ASYMM. ETA =     0.11875


     HELLMANN-FEYNMAN-FORCE IN mRy/a.u. = |F|  Fx       Fy             Fz
:FHF001:   1.ATOM   1114.036905386026      0.000000000000      0.000000000000  -1114.036905386026

:FIT001: LUSE= 13 SIGMA OF V-XC FIT FOR ATOM  1  0.5364601E-04
:FIT001: LUSE= 13 SIGMA OF V-XC FIT FOR ATOM  1  0.5364601E-04
:DEN  : DENSITY INTEGRAL  =        -14135.60273920   (Ry)
       ELS_POTENTIAL_AT Z=0 and Z=0.5:   0.63914   0.63914
       ELS_POTENTIAL_AT Y=0 and Y=0.5:   0.08596   0.08596
:VZERO:v0,v0c,v0x   0.10652   0.63914  -0.53262 v5,v5c,v5x   0.10652   0.63914  -0.53262
:VZERY:v0,v0c,v0x  -0.62831   0.08596  -0.71427 v5,v5c,v5x  -0.62831   0.08596  -0.71427
:VZERX:v0,v0c,v0x  -1.05420  -0.36273  -0.69147 v5,v5c,v5x  -1.05420  -0.36273  -0.69147
:LMAX-WF:   10   Non-Spherical LMAX:   4

          ATOMIC SPHERE DEPENDENT PARAMETERS FOR ATOM  Pr1       
:e__0001: OVERALL ENERGY PARAMETER IS    0.3073
          OVERALL BASIS SET ON ATOM IS LAPW
:E0_0001: E( 0)=    0.3073
             APW+lo
:E0_0001: E( 0)=   -2.1730   E(BOTTOM)=   -2.811   E(TOP)=   -1.535  4  5   163
             LOCAL ORBITAL
:E1_0001: E( 1)=    0.7073
             APW+lo
:E1_0001: E( 1)=   -0.7047   E(BOTTOM)=   -1.665   E(TOP)=    0.256  3  4   195
             LOCAL ORBITAL
:E3_0001: E( 3)=    0.4946   E(BOTTOM)=    0.283   E(TOP)=    0.706  0  1   120
             APW+lo
:E2_0001: E( 2)=    0.3073   E(BOTTOM)=    0.075   E(TOP)= -200.000  2 -1    98
             APW+lo

       K=   0.06250   0.00000   0.06250            1
:RKM  : MATRIX SIZE   530LOs:  40  RKM= 8.48  WEIGHT= 4.00  PGR:    
       EIGENVALUES ARE:
:EIG00001:      -2.1373208   -2.1298516   -0.8474532   -0.7995585   -0.7886499
:EIG00006:      -0.7842035   -0.7803684   -0.7797951    0.2722184    0.4188260
:EIG00011:       0.5111939    0.5116004    0.5120260    0.5139149    0.5157622
:EIG00016:       0.5243582    0.5267086    0.5272324    0.5292565    0.5314714
:EIG00021:       0.5340483    0.5374793    0.5380878    0.5410797    0.5705159
:EIG00026:       0.5819449    0.6354350    0.6631252    0.6704426    0.7112971
:EIG00031:       0.7259078    0.7902049    0.8328007    0.8665166    1.1000530
:EIG00036:       1.1582036    1.2462612    1.2502059    1.3861789    1.4389589
:EIG00041:       1.4673500    1.5681686    1.6212960    1.6459283    1.7109526
:EIG00046:       1.7924125    1.7966498    1.8247068    1.8955469    1.9659311
 
:EIG00051:       2.0155329    2.0680693    2.0889939    2.1309153    2.1541548
:EIG00056:       2.2382799    2.2777189    2.2968823    2.3815849    2.4111038
:EIG00061:       2.4702554    2.5078427    2.6182083    2.7034695    2.7224628
:EIG00066:       2.8065981    2.8353139    2.8496378    2.8643355    2.9496537
:EIG00071:       2.9621040    3.0055781    3.0295535    3.0585703    3.0703114
:EIG00076:       3.1121718    3.1523009    3.1816912    3.2114551    3.2303909
:EIG00081:       3.2714569    3.3184121    3.3275165    3.3604508    3.4175114
:EIG00086:       3.4429550    3.5097234    3.5186940    3.5492442    3.5571060
:EIG00091:       3.5911364    3.6059540    3.6548903    3.6584729    3.6624031
:EIG00096:       3.7258825    3.7415320    3.7505807    3.7636966    3.8432934
 
:EIG00101:       3.8890555    4.0138425    4.0187096    4.0706377    4.1094381
:EIG00106:       4.1274851    4.1549382    4.1580469    4.2081950    4.2339390
[...]


:VKCOUL :  VK-COUL convergence: 0.152E-06
       ATOMNUMBER=  1 Pr1        VCOUL-ZERO = -0.78775E-01
:EFG001:                        EFG         =    -5.93494   *10**21  V / m**2
                               V20  TOT/SRF=    -5.13980    -0.01336
                               V22  TOT/SRF=     0.40843     0.00294
                               V22M TOT/SRF=     0.00000     0.00000
                               V21  TOT/SRF=     0.00000     0.00000
                               V21M TOT/SRF=     0.00000     0.00000

              3.37590    0.00000    0.00000        3.37590    0.00000    0.00000
              0.00000    2.55903    0.00000        0.00000    2.55903    0.00000
              0.00000    0.00000   -5.93494        0.00000    0.00000   -5.93494

         MAIN DIRECTIONS OF THE EFG   1.0000  0.0000  0.0000
                                      0.0000  1.0000  0.0000
                                      0.0000  0.0000  1.0000
:ANG001:  ANGLE WITH OLD X-AXIS =         0.0

:ETA001:                         ASYMM. ETA =     0.13764


     HELLMANN-FEYNMAN-FORCE IN mRy/a.u. = |F|  Fx       Fy             Fz
:FHF001:   1.ATOM   1073.507618845480      0.000000000000      0.000000000000  -1073.507618845480

:FIT001: LUSE= 13 SIGMA OF V-XC FIT FOR ATOM  1  0.3894297E-04
:FIT001: LUSE= 13 SIGMA OF V-XC FIT FOR ATOM  1  0.3894297E-04
:DEN  : DENSITY INTEGRAL  =        -14135.66957036   (Ry)
       ELS_POTENTIAL_AT Z=0 and Z=0.5:   0.63989   0.63989
       ELS_POTENTIAL_AT Y=0 and Y=0.5:   0.08663   0.08663
:VZERO:v0,v0c,v0x   0.10706   0.63989  -0.53283 v5,v5c,v5x   0.10706   0.63989  -0.53283
:VZERY:v0,v0c,v0x  -0.62805   0.08663  -0.71467 v5,v5c,v5x  -0.62805   0.08663  -0.71467
:VZERX:v0,v0c,v0x  -1.05487  -0.36316  -0.69171 v5,v5c,v5x  -1.05487  -0.36316  -0.69171
:LMAX-WF:   10   Non-Spherical LMAX:   4

          ATOMIC SPHERE DEPENDENT PARAMETERS FOR ATOM  Pr1       
:e__0001: OVERALL ENERGY PARAMETER IS    0.3082
          OVERALL BASIS SET ON ATOM IS LAPW
:E0_0001: E( 0)=    0.3082
             APW+lo
:E0_0001: E( 0)=   -2.1722   E(BOTTOM)=   -2.810   E(TOP)=   -1.534  4  5   166
             LOCAL ORBITAL
:E1_0001: E( 1)=    0.7082
             APW+lo
:E1_0001: E( 1)=   -0.7041   E(BOTTOM)=   -1.665   E(TOP)=    0.257  3  4   196
             LOCAL ORBITAL
:E3_0001: E( 3)=    0.4957   E(BOTTOM)=    0.284   E(TOP)=    0.708  0  1   123
             APW+lo
:E2_0001: E( 2)=    0.3082   E(BOTTOM)=    0.075   E(TOP)= -200.000  2 -1    97
             APW+lo

       K=   0.06250   0.00000   0.06250            1
:RKM  : MATRIX SIZE   530LOs:  40  RKM= 8.48  WEIGHT= 4.00  PGR:    
       EIGENVALUES ARE:
:EIG00001:      -2.1366290   -2.1291591   -0.8465989   -0.7993182   -0.7884165
:EIG00006:      -0.7834891   -0.7794896   -0.7790851    0.2726538    0.4191674
:EIG00011:       0.5120812    0.5128556    0.5128892    0.5149012    0.5166511
:EIG00016:       0.5257693    0.5278157    0.5285742    0.5305965    0.5322844
:EIG00021:       0.5352571    0.5384502    0.5393203    0.5421128    0.5711962
:EIG00026:       0.5824479    0.6360509    0.6634501    0.6708991    0.7116123
:EIG00031:       0.7262326    0.7909629    0.8334638    0.8670278    1.1006912
:EIG00036:       1.1586726    1.2466994    1.2505769    1.3867418    1.4396648
:EIG00041:       1.4677518    1.5687530    1.6217813    1.6465094    1.7113833
:EIG00046:       1.7929178    1.7972345    1.8251098    1.8961003    1.9663847
 
:EIG00051:       2.0157771    2.0683989    2.0893784    2.1313301    2.1545583
:EIG00056:       2.2385662    2.2781548    2.2971757    2.3819433    2.4115712
:EIG00061:       2.4707274    2.5081812    2.6186664    2.7039945    2.7229370
:EIG00066:       2.8070420    2.8357646    2.8501820    2.8648173    2.9500555
:EIG00071:       2.9625433    3.0059353    3.0300242    3.0590473    3.0707521
:EIG00076:       3.1126585    3.1529080    3.1821758    3.2118927    3.2307907
:EIG00081:       3.2719590    3.3187282    3.3280745    3.3609748    3.4179938
:EIG00086:       3.4433378    3.5101201    3.5191554    3.5497181    3.5574909
:EIG00091:       3.5915542    3.6063677    3.6552870    3.6589889    3.6628620
:EIG00096:       3.7264364    3.7419295    3.7509528    3.7640770    3.8435776
 
:EIG00101:       3.8895076    4.0142700    4.0191635    4.0710398    4.1098559
:EIG00106:       4.1279652    4.1553132    4.1584035    4.2086349    4.2342504
:EIG00111:       4.2924625    4.3151807    4.3290210    4.3544051    4.3693931
:EIG00116:       4.4385062    4.5061782    4.5433411    4.5509410    4.5724142
:EIG00121:       4.6087701    4.6891438    4.6947232    4.7277646    4.7843724
:EIG00126:       4.8366565    4.8499061    4.8890357    4.9405179    4.9571706
:EIG00131:       4.9875241    5.0258967    5.0619801    5.0832376    5.0933084
:EIG00136:       5.1440322    5.1891722    5.2362137    5.2481798    5.2794684
:EIG00141:       5.2915510    5.2937292    5.3422659    5.3946402    5.3948176
:EIG00146:       5.4188819    5.4411557    5.4477792    5.4535938    5.5452879
 
:EIG00151:       5.5479406    5.5828829    5.6555184    5.6777362    5.6955706
:EIG00156:       5.8038466    5.8719576    5.8819990    5.9380713    5.9423302
:EIG00161:       5.9765130    6.0539776    6.0883015    6.0906241    6.1026037
:EIG00166:       6.1664922    6.2085626    6.2119190    6.2385634    6.2523048
:EIG00171:       6.2718050    6.3382232    6.3493034    6.3707661    6.4175234
:EIG00176:       6.4273089    6.4611790    6.4800321    6.5191167    6.5290276
:EIG00181:       6.6079610    6.6197278    6.6285718    6.6600651    6.6848714
:EIG00186:       6.6969312    6.7117830    6.7790162    6.7880906    6.7948269
:EIG00191:       6.8483008    6.8573585    6.8995102    6.9154605    6.9420669
:EIG00196:       6.9565385    6.9695461    6.9993398    7.0012413    7.0410186
 
:EIG00201:       7.0721931    7.1256879    7.1296256    7.1331917    7.1802156
:EIG00206:       7.1941068    7.2131473    7.2680630    7.2940131    7.3214069
:EIG00211:       7.3290697    7.3707937    7.3741811    7.3947310    7.4060951
:EIG00216:       7.4327903    7.4461418    7.4531601    7.4808005    7.5193693
:EIG00221:       7.5475694    7.5917145    7.5933117    7.6008607    7.6047979
:EIG00226:       7.6179056    7.6463256    7.6536892    7.6922705    7.7496974
:EIG00231:       7.7571787    7.7936576    7.8412701    7.8414248    7.8513500
:EIG00236:       7.8602791    7.8996326    7.9089812    7.9226056    7.9661294
:EIG00241:       7.9732224    7.9930658
       ********************************************************

:KPT   :      NUMBER OF K-POINTS:   288
   0.0   0.0 angle (M,z), angle (M,x) deg
 
        SPIN-ORBIT EIGENVALUES:
     K=   0.06250   0.00000   0.06250            1
      MATRIX SIZE=  484   WEIGHT= 4.00
     EIGENVALUES ARE:
          -2.1366290   -2.1366290   -2.1291591   -2.1291591   -0.9520540
          -0.9520540   -0.9294194   -0.9294194   -0.7629655   -0.7629655
          -0.7208007   -0.7208007   -0.7187349   -0.7187349   -0.7131135
          -0.7131135    0.2726763    0.2726763    0.4190519    0.4190519
           0.5043042    0.5043042    0.5059399    0.5059399    0.5066946
           0.5066946    0.5076947    0.5076947    0.5097578    0.5097578
           0.5122941    0.5122941    0.5285796    0.5285796    0.5348866
           0.5348866    0.5378113    0.5378113    0.5385144    0.5385144

           0.5418757    0.5418758    0.5447275    0.5447275    0.5455862
           0.5455862    0.5481614    0.5481614    0.5721023    0.5721023
           0.5824573    0.5824573    0.6362448    0.6362448    0.6605903
           0.6605903    0.6732670    0.6732671    0.7121529    0.7121529
           0.7262042    0.7262042    0.7907575    0.7907576    0.8337733
           0.8337733    0.8671657    0.8671657    1.1007028    1.1007029
           1.1588471    1.1588471    1.2466637    1.2466637    1.2506095
           1.2506095    1.3862168    1.3862168    1.4388801    1.4388801

           1.4677991    1.4677991    1.5661021    1.5661021    1.6215368
           1.6215368    1.6472318    1.6472318    1.7120336    1.7120336
           1.7897903    1.7897903    1.7964620    1.7964620    1.8279836
           1.8279836    1.8964729    1.8964729    1.9658160    1.9658160
           2.0154667    2.0154667    2.0663864    2.0663864    2.0906863
           2.0906863    2.1331582    2.1331582    2.1551679    2.1551679
           2.2384767    2.2384767    2.2782753    2.2782753    2.2975242
           2.2975242    2.3818284    2.3818284    2.4113518    2.4113518

           2.4738543    2.4738543    2.5083443    2.5083443    2.6185976
           2.6185976    2.7041079    2.7041079    2.7230300    2.7230300
           2.8066031    2.8066031    2.8357793    2.8357793    2.8503546
           2.8503546    2.8649910    2.8649910    2.9502367    2.9502367
           2.9626096    2.9626096    3.0059905    3.0059905    3.0300708
           3.0300708    3.0583735    3.0583735    3.0717455    3.0717455
           3.1127738    3.1127738    3.1540197    3.1540197    3.1822507
           3.1822507    3.2118940    3.2118940    3.2311702    3.2311702

           3.2721692    3.2721692    3.3187438    3.3187438    3.3281257
           3.3281257    3.3611270    3.3611270    3.4180118    3.4180118
           3.4434623    3.4434623    3.5102140    3.5102140    3.5191415
           3.5191415    3.5496909    3.5496909    3.5575398    3.5575398
           3.5915628    3.5915628    3.6064096    3.6064096    3.6545582
           3.6545582    3.6592725    3.6592725    3.6630120    3.6630120
           3.7263950    3.7263950    3.7416567    3.7416567    3.7514220
           3.7514220    3.7641686    3.7641686    3.8436042    3.8436042

           3.8893125    3.8893125    4.0122644    4.0122644    4.0205494
           4.0205494    4.0719199    4.0719199    4.1097049    4.1097049
           4.1280381    4.1280381    4.1556027    4.1556027    4.1591302
           4.1591302    4.2088109    4.2088109    4.2343393    4.2343393
           4.2924967    4.2924967    4.3152166    4.3152166    4.3294375
           4.3294375    4.3544871    4.3544871    4.3694128    4.3694128
           4.4385214    4.4385214
       ********************************************************
:GAP (global)   :    0.0    Ry =     0.0   eV (metal)
:GAP (this spin):    0.0    Ry =     0.0   eV (metal)
         Bandranges (emin - emax) and occupancy:
:BAN00018:  18    0.268547    0.478130  1.00000000
:BAN00019:  19    0.371110    0.491838  1.00000000
:BAN00020:  20    0.371110    0.491838  1.00000000
:BAN00021:  21    0.462127    0.504304  1.00000000
:BAN00022:  22    0.462127    0.504304  1.00000000
:BAN00023:  23    0.493473    0.506261  1.00000000
:BAN00024:  24    0.493473    0.506261  1.00000000
:BAN00025:  25    0.500495    0.512115  0.81329021
:BAN00026:  26    0.500495    0.512115  0.81328999
:BAN00027:  27    0.505877    0.512766  0.18671005
:BAN00028:  28    0.505877    0.512766  0.18670974
:BAN00029:  29    0.508736    0.515341  0.00000000
:BAN00030:  30    0.508736    0.515341  0.00000000
:BAN00031:  31    0.511116    0.518652  0.00000000
:BAN00032:  32    0.511116    0.518652  0.00000000
:BAN00033:  33    0.514102    0.528795  0.00000000
        Energy to separate low and high energystates:    0.21855


:NOE  : NUMBER OF ELECTRONS          =   26.000

:FER  : F E R M I - ENERGY(TETRAH.M.)=   0.5082479252
:GMA  : POTENTIAL AND CHARGE CUT-OFF  12.00 Ry**.5

:POS001: ATOM   -1 X,Y,Z = 0.00000 0.89750 0.25000  MULT= 2  ZZ= 59.000  Pr1       

       LMMAX 16
       LM=   0 0  1 0  2 0  2 2  3 0  3 2  4 0  4 2  4 4  5 0  5 2  5 4  6 0  6 2  6 4  6 6

:CHA001: TOTAL VALENCE CHARGE INSIDE SPHERE   1 =   9.4925    (RMT=  2.3000 )
:PCS001: PARTIAL CHARGES SPHERE =  1 S,P,D,F,PX,PY,PZ,D-Z2,D-X2Y2,D-XY,D-XZ,D-YZ 
:QTL001: 1.9373 5.0187 0.4316 2.1047 1.6702 1.6707 1.6778 0.0786 0.0790 0.0985 0.0808 0.0947
        Q-s-low E-s-low   Q-p-low E-p-low   Q-d-low E-d-low   Q-f-low E-f-low
:EPL001:  1.8692 -2.1294    4.9603 -0.8129    0.0007 -0.7989    0.0002 -0.8066
        Q-s-hi  E-s-hi    Q-p-hi  E-p-hi    Q-d-hi  E-d-hi    Q-f-hi  E-f-hi 
:EPH001:  0.0681  0.4065    0.0585  0.4456    0.4309  0.4667    2.1045  0.4997

                      VXX         VYY         VZZ       UP TO R
:VZZ001:             3.36750     2.55096    -5.91847       2.300

:CHA  : TOTAL VALENCE CHARGE INSIDE UNIT CELL =      26.000000

:SUM  : SUM OF EIGENVALUES =         -13.538101466


        1.ATOM      Pr1                  14 CORE STATES
       CORE-FORCE in mRy/a.u. = |F|      Fx             Fy             Fz
:FCO001:   1.ATOM   1040.781119273158      0.000000000000      0.000000000000   1040.781119273158

:1S 001: 1S               -3067.086100572 Ry
:2S 001: 2S                -492.834707050 Ry
:2PP001: 2P*               -465.934902735 Ry
:2P 001: 2P                -430.537020621 Ry
:3S 001: 3S                -105.915692288 Ry
:3PP001: 3P*                -94.453971637 Ry
:3P 001: 3P                 -87.445799188 Ry
:3DD001: 3D*                -67.373993948 Ry
:3D 001: 3D                 -65.862285204 Ry
:4S 001: 4S                 -20.596612069 Ry
:4PP001: 4P*                -16.304133195 Ry
:4P 001: 4P                 -14.777688059 Ry
:4DD001: 4D*                 -7.712683373 Ry
:4D 001: 4D                  -7.443628579 Ry
:CINT001 Core Integral Atom   1   45.998466

       DENSITY AT NUCLEUS
        JATOM        VALENCE       SEMI-CORE          CORE           TOTAL
:RTO001:   1      644.737025        0.000000   656824.527783   657469.264808
     
       CHARGES OF NEW CHARGE DENSITY
:NTO   : INTERSTITIAL CHARGE =     7.015092
:NPC   : PW Pseudocharge     =    16.800045
:NTO001: CHARGE SPHERE  1    =    55.490920

:NEC01: NUCLEAR AND ELECTRONIC CHARGE    118.00000   117.99693
     
       CHARGES OF OLD CHARGE DENSITY
:OTO   : INTERSTITIAL CHARGE =     7.018194
:OPC   : PW Pseudocharge     =    16.807351
:OTO001: CHARGE SPHERE  1    =    55.490903

:NEC02: NUCLEAR AND ELECTRONIC CHARGE    118.00000   118.00000
     
       CONVERGENCE TEST
:DTO001: DIFFERENCE IN SPHERE  1 =  0.0000349

:DIS  :  CHARGE DISTANCE       ( 0.0000349 for atom    1 spin 1)      0.0000349
 PW Mixed is          580
 
******************************************************
* MULTISECANT MIXING VER9 RELEASE 10.4.0              *
* Standard Mode with controls                        *
* Fixed density scale                                *
* Regularization       1.000E-04                     *
* Trust Upper Limit    5.000E+00                     *
* Max Number of Memory Steps    8                    *
******************************************************
 
:PWTMP   4.6493E+02  1.9467E+02  5.6686E+02
:PLANE:  PW TOTAL      4.2513 DISTAN   1.69E-05  3.97E-04 %
:CHARG:  CLM/ATOM   1381.9314 DISTAN   1.16E-04  8.40E-06 %
 
Step History
        DMIX         DMIXT        Red     Pred      Trust     Lambda    MagRel    MagAbs     Beta
  6   1.4900E-01   1.4663E-01  4.24E-01  3.14E-01  4.79E-01  1.04E+00  4.79E-01  8.74E-02  1.00E+00
  7   1.0059E-01   1.0059E-01  5.40E-01  6.78E-01  6.39E-01  1.30E+00  6.14E-01  4.75E-02  1.00E+00
  8   8.7431E-02   8.7431E-02  7.08E-01  7.76E-01  8.52E-01  1.94E+00  1.61E-01  6.73E-03  1.00E+00
  9   2.1858E-01   2.1858E-01  3.03E-01  4.94E-01  1.14E+00  7.21E-01  6.38E-01  1.89E-02  1.00E+00
 10   1.8914E-01   1.8914E-01  4.34E-01  5.56E-01  1.51E+00  8.53E-01  5.18E-01  4.65E-03  1.00E+00
 11   3.3109E-01   3.3109E-01  3.91E-01  4.40E-01  2.02E+00  1.28E+00  6.79E-01  2.64E-03  1.00E+00
 12   3.3059E-01   3.3059E-01  6.13E-01  3.26E-01  2.69E+00  1.63E+00  2.65E-01  4.03E-04  1.00E+00
 13   3.0429E-01   3.0429E-01  1.71E-01  1.13E-01  3.59E+00  1.77E+00  2.16E-01  2.02E-04  1.00E+00
 14   2.6289E-01   2.6289E-01 -1.00E+00  3.40E-01  4.78E+00  1.00E+00  1.79E-01  2.85E-05  1.00E+00
:JACOBIANS    1.807E-01   3.258E+00
  
:NORMS:  1/Froebius, Min, Max, Used   0.6444E+00  0.4893E+00  0.9754E+00  0.9090E+00
:INFO :  Number of Memory Steps    8 Skipping    5
:INFO :  SLambda=    1.9927389376  Max    1.9927389376
:PREDicted Charge, CTotal, PW Trust    9.183E-06   1.837E-05   2.575E-05
:PREDicted DMix, Beta, BLim   3.3577E-01  9.9611E-01  4.0870E+00

Eigenvalues, unscaled except for SY+YY
   #     SY Real        SY Imag          SS             YY         SY+YY Real      SY+YY Imag
   1   2.482804E+00   0.000000E+00   2.389700E+00   2.892002E+00   7.615223E+00   0.000000E+00
   2   7.839562E-01   0.000000E+00   6.311615E-01   2.514273E+00   3.913746E+00   0.000000E+00
   3   5.459825E-01   0.000000E+00   2.209489E-01   1.071093E+00   2.438681E+00   0.000000E+00
   4   1.762872E-01   0.000000E+00   7.284218E-02   1.022025E+00   1.248318E+00   0.000000E+00
   5   3.911967E-02   0.000000E+00   3.757760E-03   2.887317E-01   5.721857E-01   0.000000E+00
   6   2.702646E-02   0.000000E+00   2.809002E-03   2.031332E-01   2.813268E-01   0.000000E+00
   7   2.757605E-04   0.000000E+00   4.349165E-04   8.375641E-03   1.510165E-02   0.000000E+00
   8   1.999212E-03   0.000000E+00   1.372431E-04   3.671001E-04   8.578961E-04   0.000000E+00
 
:INFO :  Singular value  7.634E+00 Weight  1.000E+00 Projection  1.314E-05
:INFO :  Singular value  3.920E+00 Weight  1.000E+00 Projection  3.824E-05
:INFO :  Singular value  2.433E+00 Weight  1.000E+00 Projection  1.052E-05
:INFO :  Singular value  1.248E+00 Weight  1.000E+00 Projection  6.177E-05
:INFO :  Singular value  5.722E-01 Weight  1.000E+00 Projection -2.380E-05
:INFO :  Singular value  2.811E-01 Weight  1.000E+00 Projection  7.895E-05
:INFO :  Singular value  1.510E-02 Weight  9.996E-01 Projection -8.649E-05
:INFO :  Singular value  8.578E-04 Weight  8.979E-01 Projection -1.718E-03
:RANK :  ACTIVE   7.90/8  =  98.72 % ; YY RANK   7.62/8  =  95.20 %
 
:DLIM :  Beta Active  9.971E-01
:BLIM :  VZERO Control Off
:TRUST:  Step 6.38E+00  Charge 9.44E-03 (e) CTO  3.15E-02 (e) PW  4.40E-02 (e)
:DIRM :  MEMORY  8/8  SCALE   1.000 RED  0.74 PRED  0.34 NEXT  0.15 BETA  1.00
:TRAVE:  Charge 1.65E-05 (e) CTO  3.31E-05 (e) PW  1.13E-04 (e)
:DIRP :  |MSR1|= 1.199E-05 |PRATT|= 1.688E-05 ANGLE=  14.7 DEGREES
:DIRQ :  |MSR1|= 2.373E-05 |PRATT|= 1.161E-04 ANGLE=  34.3 DEGREES
:DIRT :  |MSR1|= 2.658E-05 |PRATT|= 1.174E-04 ANGLE=  37.6 DEGREES
:MIX  :   MSE1   REGULARIZATION:  2.89E-04 GREED: 0.30804  Newton 1.00  0.2265                
     
       CHARGES OF MIXED CHARGE DENSITY
:CTO   : INTERSTITIAL CHARGE =     7.018197
:CPC   : PW Pseudocharge     =    16.807385
:CTO001: CHARGE SPHERE  1    =    55.490902

:NEC03: NUCLEAR AND ELECTRONIC CHARGE    118.00000   118.00000

PW CHANGE     H    K    L      Current       Change    Residue
:PTO001:      0    0    0  4.20308081E-02  6.641E-08  1.606E-08
:PTO003:      0    2    0  1.24496067E-02  2.084E-08  2.372E-08
:PTO004:     -1    1    0  6.18948397E-02  2.218E-07  3.053E-07
:PTO005:      0    2   -1 -7.24973904E-02 -1.202E-07 -1.943E-07
:PTO006:      0    0   -2 -3.74557568E-02  2.130E-08  4.148E-08
:PTO007:     -1    1   -1 -7.97105838E-02 -1.732E-07 -2.591E-07
:PTO008:      0    2   -2 -1.35305617E-02 -2.654E-08 -4.463E-08
:PTO009:     -1    1   -2 -7.10822363E-02 -1.461E-07 -2.410E-07
:PTO011:     -1    3    0 -1.20334826E-02  6.415E-08  9.116E-08
:PTO012:     -1    3   -1 -5.54846666E-02 -1.048E-07 -1.726E-07
:PTO013:      0    4    0 -1.04901276E-02 -2.497E-08 -4.729E-08
:PTO014:      0    2   -3  2.39154945E-02  3.929E-08  7.964E-08

:ENE  : ********** TOTAL ENERGY IN Ry =       -36944.16059692

       TOTAL FORCE IN mRy/a.u. = |F|     Fx             Fy             Fz     with/without FOR in case.in2
:FOR001:   1.ATOM         32.726          0.000          0.000        -32.726 partial forces
       TOTAL FORCE WITH RESPECT TO GLOBAL CARTESIAN COORDINATES:
:FCA001:   1.ATOM                         0.000        -32.726          0.000 partial forces
       TOTAL FORCE WITH RESPECT TO THE GLOBAL COORDINATE SYSTEM:
:FGL001:   1.ATOM                 0.000000000   -32.726499572     0.000000000 partial forces
