
------- alpha_Pu_0.scf0 --------


            ---------
:ITE088: 88. ITERATION
            ---------

:NATO :    8 INDEPENDENT AND   16 TOTAL ATOMS IN UNITCELL
       SUBSTANCE: alpha_Pu                                                    

       LATTICE                      = P   
:POT  : POTENTIAL OPTION    5
:LAT  : LATTICE CONSTANTS= 10.84457  8.46041 19.23481    1.571    1.777    1.571
:VOL  : UNIT CELL VOLUME =    1727.57324
       MODE OF CALCULATION IS       = RELA
       NON-SPINPOLARIZED CALCULATION
:IFFT  : FFT-parameters:   90   72  150 Factor: 2.00
       ATOMNUMBER=  1 Pu  0+     VCOUL-ZERO =  0.90935E+00
:EFG001:                        EFG         =   -18.30166   *10**21  V / m**2
                               V20  TOT/SRF=    11.46599    -0.14654
                               V22  TOT/SRF=     2.20926     0.15452
                               V22M TOT/SRF=   -11.47096    -0.11950
                               V21  TOT/SRF=     0.00000     0.00000
                               V21M TOT/SRF=     0.00000     0.00000

             -4.41064  -11.47096    0.00000        5.06188    0.00000    0.00000
            -11.47096   -8.82915    0.00000        0.00000  -18.30166    0.00000
              0.00000    0.00000   13.23978        0.00000    0.00000   13.23978

         MAIN DIRECTIONS OF THE EFG   1.0000  0.8258  0.0000
                                     -0.8258  1.0000  0.0000
                                      0.0000  0.0000  1.0000
:ANG001:  ANGLE WITH OLD X-AXIS =        39.5

:ETA001:                         ASYMM. ETA =     0.44684


       ATOMNUMBER=  2 Pu  0+     VCOUL-ZERO =  0.92985E+00
:EFG002:                        EFG         =   -20.37342   *10**21  V / m**2
                               V20  TOT/SRF=     7.98294     0.01995
                               V22  TOT/SRF=   -11.96231    -0.13730
                               V22M TOT/SRF=    10.26751     0.11858
                               V21  TOT/SRF=     0.00000     0.00000
                               V21M TOT/SRF=     0.00000     0.00000

            -16.57126   10.26751    0.00000      -20.37342    0.00000    0.00000
             10.26751    7.35335    0.00000        0.00000   11.15551    0.00000
              0.00000    0.00000    9.21791        0.00000    0.00000    9.21791

         MAIN DIRECTIONS OF THE EFG   1.0000  0.3703  0.0000
                                     -0.3703  1.0000  0.0000
                                      0.0000  0.0000  1.0000
:ANG002:  ANGLE WITH OLD X-AXIS =        20.3

:ETA002:                         ASYMM. ETA =     0.09510


       ATOMNUMBER=  3 Pu  0+     VCOUL-ZERO =  0.92649E+00
:EFG003:                        EFG         =   -16.86491   *10**21  V / m**2
                               V20  TOT/SRF=     3.53270    -0.00340
                               V22  TOT/SRF=    -4.52323     0.00061
                               V22M TOT/SRF=   -14.11843    -0.01387
                               V21  TOT/SRF=     0.00000     0.00000
                               V21M TOT/SRF=     0.00000     0.00000

             -6.56283  -14.11843    0.00000      -16.86491    0.00000    0.00000
            -14.11843    2.48362    0.00000        0.00000   12.78570    0.00000
              0.00000    0.00000    4.07921        0.00000    0.00000    4.07921

         MAIN DIRECTIONS OF THE EFG   1.0000 -0.7297  0.0000
                                      0.7297  1.0000  0.0000
                                      0.0000  0.0000  1.0000
:ANG003:  ANGLE WITH OLD X-AXIS =        36.1

:ETA003:                         ASYMM. ETA =     0.51625


       ATOMNUMBER=  4 Pu  0+     VCOUL-ZERO =  0.93028E+00
:EFG004:                        EFG         =   -19.24845   *10**21  V / m**2
                               V20  TOT/SRF=     2.72055    -0.01863
                               V22  TOT/SRF=    -0.83394     0.01909
                               V22M TOT/SRF=    17.65806     0.04433
                               V21  TOT/SRF=     0.00000     0.00000
                               V21M TOT/SRF=     0.00000     0.00000

             -2.40465   17.65806    0.00000      -19.24845    0.00000    0.00000
             17.65806   -0.73677    0.00000        0.00000   16.10703    0.00000
              0.00000    0.00000    3.14142        0.00000    0.00000    3.14142

         MAIN DIRECTIONS OF THE EFG   1.0000  0.9539  0.0000
                                     -0.9539  1.0000  0.0000
                                      0.0000  0.0000  1.0000
:ANG004:  ANGLE WITH OLD X-AXIS =        43.6

:ETA004:                         ASYMM. ETA =     0.67359


       ATOMNUMBER=  5 Pu  0+     VCOUL-ZERO =  0.93534E+00
:EFG005:                        EFG         =   -36.94702   *10**21  V / m**2
                               V20  TOT/SRF=    11.94071     0.02827
                               V22  TOT/SRF=   -30.03956    -0.17295
                               V22M TOT/SRF=     0.90044     0.06246
                               V21  TOT/SRF=     0.00000     0.00000
                               V21M TOT/SRF=     0.00000     0.00000

            -36.93353    0.90044    0.00000      -36.94702    0.00000    0.00000
              0.90044   23.14559    0.00000        0.00000   23.15908    0.00000
              0.00000    0.00000   13.78794        0.00000    0.00000   13.78794

         MAIN DIRECTIONS OF THE EFG   1.0000  0.0150  0.0000
                                     -0.0150  1.0000  0.0000
                                      0.0000  0.0000  1.0000
:ANG005:  ANGLE WITH OLD X-AXIS =         0.9

:ETA005:                         ASYMM. ETA =     0.25364


       ATOMNUMBER=  6 Pu  0+     VCOUL-ZERO =  0.93797E+00
:EFG006:                        EFG         =   -18.28727   *10**21  V / m**2
                               V20  TOT/SRF=    12.98990    -0.00195
                               V22  TOT/SRF=    -7.00275    -0.01509
                               V22M TOT/SRF=    -8.20566    -0.07823
                               V21  TOT/SRF=     0.00000     0.00000
                               V21M TOT/SRF=     0.00000     0.00000

            -14.50247   -8.20566    0.00000      -18.28727    0.00000    0.00000
             -8.20566   -0.49697    0.00000        0.00000    3.28783    0.00000
              0.00000    0.00000   14.99944        0.00000    0.00000   14.99944

         MAIN DIRECTIONS OF THE EFG   1.0000 -0.4612  0.0000
                                      0.4612  1.0000  0.0000
                                      0.0000  0.0000  1.0000
:ANG006:  ANGLE WITH OLD X-AXIS =        24.8

:ETA006:                         ASYMM. ETA =     0.64042


       ATOMNUMBER=  7 Pu  0+     VCOUL-ZERO =  0.92544E+00
:EFG007:                        EFG         =   -21.35655   *10**21  V / m**2
                               V20  TOT/SRF=    11.39791     0.00243
                               V22  TOT/SRF=     7.02974     0.14294
                               V22M TOT/SRF=    12.99661     0.03367
                               V21  TOT/SRF=     0.00000     0.00000
                               V21M TOT/SRF=     0.00000     0.00000

              0.44915   12.99661    0.00000        8.19538    0.00000    0.00000
             12.99661  -13.61032    0.00000        0.00000  -21.35655    0.00000
              0.00000    0.00000   13.16117        0.00000    0.00000   13.16117

         MAIN DIRECTIONS OF THE EFG   1.0000 -0.5960  0.0000
                                      0.5960  1.0000  0.0000
                                      0.0000  0.0000  1.0000
:ANG007:  ANGLE WITH OLD X-AXIS =        30.8

:ETA007:                         ASYMM. ETA =     0.23252


       ATOMNUMBER=  8 Pu  0+     VCOUL-ZERO =  0.95420E+00
:EFG008:                        EFG         =   -46.29189   *10**21  V / m**2
                               V20  TOT/SRF=    10.57447     0.06395
                               V22  TOT/SRF=   -39.11916    -0.07324
                               V22M TOT/SRF=     9.20128    -0.00531
                               V21  TOT/SRF=     0.00000     0.00000
                               V21M TOT/SRF=     0.00000     0.00000

            -45.22433    9.20128    0.00000      -46.29189    0.00000    0.00000
              9.20128   33.01399    0.00000        0.00000   34.08154    0.00000
              0.00000    0.00000   12.21034        0.00000    0.00000   12.21034

         MAIN DIRECTIONS OF THE EFG   1.0000  0.1160  0.0000
                                     -0.1160  1.0000  0.0000
                                      0.0000  0.0000  1.0000
:ANG008:  ANGLE WITH OLD X-AXIS =         6.6

:ETA008:                         ASYMM. ETA =     0.47246


     HELLMANN-FEYNMAN-FORCE IN mRy/a.u. = |F|  Fx       Fy             Fz
:FHF001:   1.ATOM       3244.394       3197.621        548.917          0.000

     HELLMANN-FEYNMAN-FORCE IN mRy/a.u. = |F|  Fx       Fy             Fz
:FHF002:   2.ATOM       1878.661       -344.455       1846.813          0.000

     HELLMANN-FEYNMAN-FORCE IN mRy/a.u. = |F|  Fx       Fy             Fz
:FHF003:   3.ATOM       6289.643       4947.768       3883.194          0.000

     HELLMANN-FEYNMAN-FORCE IN mRy/a.u. = |F|  Fx       Fy             Fz
:FHF004:   4.ATOM       3648.960      -3618.519       -470.347          0.000

     HELLMANN-FEYNMAN-FORCE IN mRy/a.u. = |F|  Fx       Fy             Fz
:FHF005:   5.ATOM       2149.781       1084.212       1856.352          0.000

     HELLMANN-FEYNMAN-FORCE IN mRy/a.u. = |F|  Fx       Fy             Fz
:FHF006:   6.ATOM       5740.975       4626.229       3399.530          0.000

     HELLMANN-FEYNMAN-FORCE IN mRy/a.u. = |F|  Fx       Fy             Fz
:FHF007:   7.ATOM       5877.691      -4098.042       4213.467          0.000

     HELLMANN-FEYNMAN-FORCE IN mRy/a.u. = |F|  Fx       Fy             Fz
:FHF008:   8.ATOM       1501.531       1351.487        654.278          0.000

:FIT001: LUSE= 13 SIGMA OF V-XC FIT FOR ATOM  1  0.1066283E-02
:FIT001: LUSE= 13 SIGMA OF V-XC FIT FOR ATOM  1  0.1066283E-02
:FIT002: LUSE= 13 SIGMA OF V-XC FIT FOR ATOM  2  0.5981422E-03
:FIT002: LUSE= 13 SIGMA OF V-XC FIT FOR ATOM  2  0.5981422E-03
:FIT003: LUSE= 13 SIGMA OF V-XC FIT FOR ATOM  3  0.6156533E-03
:FIT003: LUSE= 13 SIGMA OF V-XC FIT FOR ATOM  3  0.6156533E-03
:FIT004: LUSE= 13 SIGMA OF V-XC FIT FOR ATOM  4  0.6246477E-03
:FIT004: LUSE= 13 SIGMA OF V-XC FIT FOR ATOM  4  0.6246477E-03
:FIT005: LUSE= 13 SIGMA OF V-XC FIT FOR ATOM  5  0.5325639E-03
:FIT005: LUSE= 13 SIGMA OF V-XC FIT FOR ATOM  5  0.5325639E-03
:FIT006: LUSE= 13 SIGMA OF V-XC FIT FOR ATOM  6  0.4102708E-03
:FIT006: LUSE= 13 SIGMA OF V-XC FIT FOR ATOM  6  0.4102708E-03
:FIT007: LUSE= 13 SIGMA OF V-XC FIT FOR ATOM  7  0.9983324E-03
:FIT007: LUSE= 13 SIGMA OF V-XC FIT FOR ATOM  7  0.9983324E-03
:FIT008: LUSE= 13 SIGMA OF V-XC FIT FOR ATOM  8  0.2951091E-03
:FIT008: LUSE= 13 SIGMA OF V-XC FIT FOR ATOM  8  0.2951091E-03
:DEN  : DENSITY INTEGRAL  =       -351103.79593015   (Ry)
       ELS_POTENTIAL_AT Z=0 and Z=0.5:   1.09805   0.51937
       ELS_POTENTIAL_AT Y=0 and Y=0.5:   1.40068   1.40068
:VZERO:v0,v0c,v0x   0.15710   1.09805  -0.94095 v5,v5c,v5x  -0.47461   0.51937  -0.99398
:VZERY:v0,v0c,v0x   0.49874   1.40068  -0.90194 v5,v5c,v5x   0.49874   1.40068  -0.90194
:VZERX:v0,v0c,v0x  -0.86106   0.17496  -1.03602 v5,v5c,v5x  -0.74978   0.27871  -1.02849

------- alpha_Pu_0.scf1 --------

          ATOMIC SPHERE DEPENDENT PARAMETERS FOR ATOM  Pu  0+    
:e__0001: OVERALL ENERGY PARAMETER IS    1.5759
          OVERALL BASIS SET ON ATOM IS LAPW
:E0_0001: E( 0)=    1.5759
             APW+lo
:E0_0001: E( 0)=   -1.6480   E(BOTTOM)=   -2.428   E(TOP)=   -0.868
             LOCAL ORBITAL
:E1_0001: E( 1)=   -0.7380   E(BOTTOM)=   -0.738   E(TOP)= -200.000
             APW+lo
:E1_0001: E( 1)=    1.5759
             LOCAL ORBITAL
:E3_0001: E( 3)=    1.5759   E(BOTTOM)=    1.311   E(TOP)= -200.000
             APW+lo
:E2_0001: E( 2)=    1.5759   E(BOTTOM)=    1.456   E(TOP)= -200.000
             APW+lo

          ATOMIC SPHERE DEPENDENT PARAMETERS FOR ATOM  Pu  0+    
:e__0002: OVERALL ENERGY PARAMETER IS    1.5759
          OVERALL BASIS SET ON ATOM IS LAPW
:E0_0002: E( 0)=    1.5759
             APW+lo
:E0_0002: E( 0)=   -1.6425   E(BOTTOM)=   -2.419   E(TOP)=   -0.866
             LOCAL ORBITAL
:E1_0002: E( 1)=   -0.7260   E(BOTTOM)=   -0.726   E(TOP)= -200.000
             APW+lo
:E1_0002: E( 1)=    1.5759
             LOCAL ORBITAL
:E3_0002: E( 3)=    1.5759   E(BOTTOM)=    1.316   E(TOP)= -200.000
             APW+lo
:E2_0002: E( 2)=    1.5759   E(BOTTOM)=    1.471   E(TOP)= -200.000
             APW+lo

          ATOMIC SPHERE DEPENDENT PARAMETERS FOR ATOM  Pu  0+    
:e__0003: OVERALL ENERGY PARAMETER IS    1.5759
          OVERALL BASIS SET ON ATOM IS LAPW
:E0_0003: E( 0)=    1.5759
             APW+lo
:E0_0003: E( 0)=   -1.6415   E(BOTTOM)=   -2.419   E(TOP)=   -0.864
             LOCAL ORBITAL
:E1_0003: E( 1)=   -0.7260   E(BOTTOM)=   -0.726   E(TOP)= -200.000
             APW+lo
:E1_0003: E( 1)=    1.5759
             LOCAL ORBITAL
:E3_0003: E( 3)=    1.5759   E(BOTTOM)=    1.321   E(TOP)= -200.000
             APW+lo
:E2_0003: E( 2)=    1.5759   E(BOTTOM)=    1.471   E(TOP)= -200.000
             APW+lo

          ATOMIC SPHERE DEPENDENT PARAMETERS FOR ATOM  Pu  0+    
:e__0004: OVERALL ENERGY PARAMETER IS    1.5759
          OVERALL BASIS SET ON ATOM IS LAPW
:E0_0004: E( 0)=    1.5759
             APW+lo
:E0_0004: E( 0)=   -1.6415   E(BOTTOM)=   -2.418   E(TOP)=   -0.865
             LOCAL ORBITAL
:E1_0004: E( 1)=   -0.7260   E(BOTTOM)=   -0.726   E(TOP)= -200.000
             APW+lo
:E1_0004: E( 1)=    1.5759
             LOCAL ORBITAL
:E3_0004: E( 3)=    1.5759   E(BOTTOM)=    1.321   E(TOP)= -200.000
             APW+lo
:E2_0004: E( 2)=    1.5759   E(BOTTOM)=    1.471   E(TOP)= -200.000
             APW+lo

          ATOMIC SPHERE DEPENDENT PARAMETERS FOR ATOM  Pu  0+    
:e__0005: OVERALL ENERGY PARAMETER IS    1.5759
          OVERALL BASIS SET ON ATOM IS LAPW
:E0_0005: E( 0)=    1.5759
             APW+lo
:E0_0005: E( 0)=   -1.6400   E(BOTTOM)=   -2.416   E(TOP)=   -0.864
             LOCAL ORBITAL
:E1_0005: E( 1)=   -0.7220   E(BOTTOM)=   -0.722   E(TOP)= -200.000
             APW+lo
:E1_0005: E( 1)=    1.5759
             LOCAL ORBITAL
:E3_0005: E( 3)=    1.5759   E(BOTTOM)=    1.321   E(TOP)= -200.000
             APW+lo
:E2_0005: E( 2)=    1.5759   E(BOTTOM)=    1.476   E(TOP)= -200.000
             APW+lo

          ATOMIC SPHERE DEPENDENT PARAMETERS FOR ATOM  Pu  0+    
:e__0006: OVERALL ENERGY PARAMETER IS    1.5759
          OVERALL BASIS SET ON ATOM IS LAPW
:E0_0006: E( 0)=    1.5759
             APW+lo
:E0_0006: E( 0)=   -1.6385   E(BOTTOM)=   -2.414   E(TOP)=   -0.863
             LOCAL ORBITAL
:E1_0006: E( 1)=   -0.7200   E(BOTTOM)=   -0.720   E(TOP)= -200.000
             APW+lo
:E1_0006: E( 1)=    1.5759
             LOCAL ORBITAL
:E3_0006: E( 3)=    1.5759   E(BOTTOM)=    1.321   E(TOP)= -200.000
             APW+lo
:E2_0006: E( 2)=    1.5759   E(BOTTOM)=    1.481   E(TOP)= -200.000
             APW+lo

          ATOMIC SPHERE DEPENDENT PARAMETERS FOR ATOM  Pu  0+    
:e__0007: OVERALL ENERGY PARAMETER IS    1.5759
          OVERALL BASIS SET ON ATOM IS LAPW
:E0_0007: E( 0)=    1.5759
             APW+lo
:E0_0007: E( 0)=   -1.6415   E(BOTTOM)=   -2.419   E(TOP)=   -0.864
             LOCAL ORBITAL
:E1_0007: E( 1)=   -0.7280   E(BOTTOM)=   -0.728   E(TOP)= -200.000
             APW+lo
:E1_0007: E( 1)=    1.5759
             LOCAL ORBITAL
:E3_0007: E( 3)=    1.5759   E(BOTTOM)=    1.321   E(TOP)= -200.000
             APW+lo
:E2_0007: E( 2)=    1.5759   E(BOTTOM)=    1.471   E(TOP)= -200.000
             APW+lo

          ATOMIC SPHERE DEPENDENT PARAMETERS FOR ATOM  Pu  0+    
:e__0008: OVERALL ENERGY PARAMETER IS    1.5759
          OVERALL BASIS SET ON ATOM IS LAPW
:E0_0008: E( 0)=    1.5759
             APW+lo
:E0_0008: E( 0)=   -1.6310   E(BOTTOM)=   -2.404   E(TOP)=   -0.858
             LOCAL ORBITAL
:E1_0008: E( 1)=   -0.7060   E(BOTTOM)=   -0.706   E(TOP)= -200.000
             APW+lo
:E1_0008: E( 1)=    1.5759
             LOCAL ORBITAL
:E3_0008: E( 3)=    1.5759   E(BOTTOM)=    1.331   E(TOP)= -200.000
             APW+lo
:E2_0008: E( 2)=    1.5759   E(BOTTOM)=    1.496   E(TOP)= -200.000
             APW+lo

       K=   0.00000   0.00000   0.00000            1
:RKM  : MATRIX SIZE 2131LOs: 320  RKM= 8.50  WEIGHT= 1.00  PGR:    
       EIGENVALUES ARE:
:EIG00001:      -1.7386770   -1.7035642   -1.6964475   -1.6633708   -1.6394844
:EIG00006:      -1.6353779   -1.6174351   -1.6051072   -1.6015808   -1.5786908
:EIG00011:      -1.5714592   -1.5601822   -1.5399818   -1.5340279   -1.5261597
:EIG00016:      -1.5088124    0.0056517    0.0255211    0.0262916    0.0577861
:EIG00021:       0.0604374    0.0675829    0.0762740    0.0824600    0.1430253
:EIG00026:       0.1453161    0.1474837    0.1692328    0.1713391    0.1884148
:EIG00031:       0.1938262    0.1945752    0.1995227    0.2016126    0.2343576
:EIG00036:       0.2508329    0.3009633    0.3022174    0.3645547    0.3867162
:EIG00041:       0.3989223    0.4272176    0.4426718    0.4511025    0.4927923
:EIG00046:       0.4974801    0.5258381    0.5294629    0.5329542    0.5474637
 
:EIG00051:       0.5547974    0.5725003    0.5726715    0.5836668    0.5983187
:EIG00056:       0.6040263    0.6085813    0.6325877    0.6378799    0.6428524
:EIG00061:       0.6538510    0.6579984    0.6847984    0.6968084    1.4826347
:EIG00066:       1.4832326    1.5086157    1.5118255    1.5265908    1.5358654
:EIG00071:       1.5405810    1.5474292    1.5661210    1.5683531    1.5731528
:EIG00076:       1.5751826    1.5876329    1.5962438    1.6103580    1.6107597
:EIG00081:       1.6140112    1.6152796    1.6207802    1.6339938    1.6450133
:EIG00086:       1.6467458    1.6510172    1.6528874    1.6529533    1.6533313
:EIG00091:       1.6587743    1.6645377    1.6701570    1.6726017    1.6726912
:EIG00096:       1.6758777    1.6848408    1.6858641    1.6878256    1.6879418
 
:EIG00101:       1.6890308    1.6899159    1.6948919    1.6974059    1.6982506
:EIG00106:       1.7002057    1.7050572    1.7053869    1.7055082    1.7141441
:EIG00111:       1.7168912    1.7199507    1.7201834    1.7242501    1.7255531
:EIG00116:       1.7330162    1.7357331    1.7360346    1.7377677    1.7458908
:EIG00121:       1.7546352    1.7632506    1.7647128    1.7706470    1.7780332
:EIG00126:       1.7788698    1.7936451    1.7994128    1.8012385    1.8065888
:EIG00131:       1.8071514    1.8078271    1.8141402    1.8167636    1.8186057
:EIG00136:       1.8229798    1.8344002    1.8351074    1.8354211    1.8354661
:EIG00141:       1.8374628    1.8402700    1.8451983    1.8480397    1.8579132
:EIG00146:       1.8584192    1.8636806    1.8643765    1.8665478    1.8693371
 
:EIG00151:       1.8763369    1.8800877    1.8818199    1.8829220    1.8852128
:EIG00156:       1.8918415    1.8952067    1.8965962    1.8969691    1.8976927
:EIG00161:       1.8999944    1.9038003    1.9052228    1.9055659    1.9057845
:EIG00166:       1.9098391    1.9111624    1.9118089    1.9163793    1.9174622
:EIG00171:       1.9186888    1.9210028    1.9279865    1.9295319    1.9324063
:EIG00176:       1.9333274    1.9337544    1.9338225    1.9341245    1.9403644
:EIG00181:       1.9424073    1.9486075    1.9486369    1.9585900    1.9603173
:EIG00186:       1.9613154    1.9644629    1.9679271    1.9683010    1.9754532
:EIG00191:       1.9769713    1.9820146    1.9898706    1.9963968    2.0162431
:EIG00196:       2.0168472    2.0169090    2.0588417    2.0770375    2.0814401
 
:EIG00201:       2.0859765    2.1057096    2.1111726    2.1136296    2.1338509
:EIG00206:       2.1338801    2.1512982    2.1573149    2.1678030    2.1913923
:EIG00211:       2.1922662    2.2044240    2.2167148    2.2261687    2.2466184
:EIG00216:       2.2800875    2.2843107    2.2921000    2.3132421    2.3319761
:EIG00221:       2.3343309    2.3346399    2.3735893    2.3753301    2.3872557
:EIG00226:       2.3954347    2.4166567    2.4398721    2.4415295    2.4554343
:EIG00231:       2.4711445    2.4946550    2.4966202    2.4999582    2.5086011
:EIG00236:       2.5456298    2.5521666    2.5665605    2.5671619    2.6065386
:EIG00241:       2.6164561    2.6177384    2.6370371    2.6439910    2.6790639
:EIG00246:       2.6892100    2.7099570    2.7219334    2.7483739    2.7491256
 
:EIG00251:       2.7706321    2.7883257    2.7991635    2.8182340    2.8216457
:EIG00256:       2.8393686    2.8414896    2.8601858    2.8794503    2.8960471
:EIG00261:       2.9157144    2.9770032    2.9903073    2.9973327    3.0746701
:EIG00266:       3.1111460    3.1533927    3.1585277    3.1710212    3.1951641
:EIG00271:       3.2098382    3.2267116    3.2365180    3.2386379    3.2443408
:EIG00276:       3.2508096    3.2535781    3.2537332    3.2738143    3.2760692
:EIG00281:       3.3092345    3.3111044    3.3163739    3.3298550    3.3470248
:EIG00286:       3.3521886    3.4093364    3.4108751    3.4384748    3.4460366
:EIG00291:       3.4476899    3.4633529    3.4771897    3.5006642    3.5208456
:EIG00296:       3.5599456    3.5619318    3.5688925    3.5839633    3.6005818
 
:EIG00301:       3.6032090    3.6158517    3.6339297    3.6642841    3.6755524
:EIG00306:       3.6786651    3.6954586    3.7010270    3.7044380    3.7253251
:EIG00311:       3.7441536    3.7454284    3.7559535    3.7600123    3.7700205
:EIG00316:       3.7716230    3.7767485    3.8001387    3.8039396    3.8261627
:EIG00321:       3.8431095    3.8435131    3.8532797    3.8892458    3.9006193
:EIG00326:       3.9132512    3.9171703    3.9217745    3.9310753    3.9502037
:EIG00331:       3.9574044    3.9649457    3.9769430    3.9794818    3.9992178
:EIG00336:       4.0224330    4.0437961    4.0551832    4.0608540    4.0901577
:EIG00341:       4.0903764    4.0989382    4.1121491    4.1204083    4.1308883
:EIG00346:       4.1331840    4.1394444    4.1594101    4.1635587    4.1729812
 
:EIG00351:       4.1991109    4.2105144    4.2240794    4.2314821    4.2462423
:EIG00356:       4.2833172    4.2984649    4.3018861    4.3128520    4.3304719
:EIG00361:       4.3346224    4.3517292    4.3537496    4.3594138    4.3854423
:EIG00366:       4.3870008    4.4010102    4.4108340    4.4341443    4.4466293
:EIG00371:       4.4548263    4.4711062    4.4760505    4.4761322    4.4814106
:EIG00376:       4.4961753    4.5091613    4.5342856    4.5357156    4.5506019
:EIG00381:       4.5598106    4.5675065    4.5727429    4.5858496    4.5921302
:EIG00386:       4.5973534    4.6432915    4.6494241    4.6609148    4.6783294
:EIG00391:       4.7137495    4.7322961    4.7402589    4.7501501    4.7655346
:EIG00396:       4.7675432    4.7866924    4.7901657    4.7907871    4.8066168
 
:EIG00401:       4.8612509    4.8739654    4.8745467    4.8756158    4.9048881
:EIG00406:       4.9106118    4.9209841    4.9265579    4.9334179    4.9439368
:EIG00411:       4.9730275    4.9754058    4.9758660    4.9921993    4.9977278
:EIG00416:       5.0162925    5.0257385    5.0343020    5.0397951    5.0527867
:EIG00421:       5.0552252    5.0766352    5.0873201    5.1132427    5.1416004
:EIG00426:       5.1471589    5.1717322    5.1837721    5.1876907    5.1913503
:EIG00431:       5.1930206    5.1995089    5.2070689    5.2107355    5.2271411
:EIG00436:       5.2331977    5.2453924    5.2537563    5.2602229    5.2690210
:EIG00441:       5.2705449    5.2905275    5.3027589    5.3038951    5.3168676
:EIG00446:       5.3181018    5.3289365    5.3359547    5.3456626    5.3526872
 
:EIG00451:       5.3685860    5.3731059    5.3804070    5.3964310    5.3983957
:EIG00456:       5.4382194    5.4440990    5.4480732    5.4583625    5.4683500
:EIG00461:       5.4704271    5.4783677    5.5029839    5.5078787    5.5195352
:EIG00466:       5.5422659    5.5538335    5.5558178    5.5598079    5.5630255
:EIG00471:       5.5716316    5.5825487    5.5906477    5.6015904    5.6192594
:EIG00476:       5.6211676    5.6287881    5.6313220    5.6495086    5.6547280
:EIG00481:       5.6640096    5.6694462    5.6759405    5.6768574    5.6775091
:EIG00486:       5.6947310    5.6948660    5.7066275    5.7220557    5.7310000
:EIG00491:       5.7373958    5.7402070    5.7419563    5.7534383    5.7633621
:EIG00496:       5.7770951    5.7925978    5.7963008    5.8027457    5.8088655
 
:EIG00501:       5.8106131    5.8238012    5.8382881    5.8396924    5.8409118
:EIG00506:       5.8517806    5.8671082    5.8689172    5.8728869    5.8896896
:EIG00511:       5.8997698    5.9106446    5.9146944    5.9201810    5.9395511
:EIG00516:       5.9405124    5.9462419    5.9603140    5.9709243    5.9859906
:EIG00521:       5.9897103    5.9977686    6.0181493    6.0214091    6.0435754
:EIG00526:       6.0448466    6.0476040    6.0484773    6.0556575    6.0734387
:EIG00531:       6.0762087    6.0915796    6.1130340    6.1144772    6.1189890
:EIG00536:       6.1480750    6.1498553    6.1717171    6.1760145    6.1768616
:EIG00541:       6.1794152    6.2089815    6.2233631    6.2246157    6.2272070
:EIG00546:       6.2359056    6.2414850    6.2495968    6.2619804    6.2690441
 
:EIG00551:       6.2918055    6.2937750    6.2955924    6.3115682    6.3128804
:EIG00556:       6.3171544    6.3424504    6.3466136    6.3585165    6.3733277
:EIG00561:       6.3775021    6.3832822    6.3863909    6.3917073    6.4014336
:EIG00566:       6.4018732    6.4100365    6.4339849    6.4359763    6.4438438
:EIG00571:       6.4535623    6.4599069    6.4604268    6.4645005    6.4658559
:EIG00576:       6.4803009    6.4842371    6.5045790    6.5213894    6.5450472
:EIG00581:       6.5470027    6.5542658    6.5608414    6.5769363    6.5775998
:EIG00586:       6.5792043    6.5891354    6.5976268    6.6051632    6.6087029
:EIG00591:       6.6253831    6.6403730    6.6406057    6.6444279    6.6513034
:EIG00596:       6.6624849    6.6626886    6.6758763    6.6792208    6.6795664
 
:EIG00601:       6.6923785    6.7068511    6.7174682    6.7189676    6.7222374
:EIG00606:       6.7358818    6.7461137    6.7558394    6.7670118    6.7762039
:EIG00611:       6.7781251    6.7869914    6.8077642    6.8229214    6.8356717
:EIG00616:       6.8453348    6.8465886    6.8543315    6.8631007    6.8657460
:EIG00621:       6.8663455    6.8789885    6.8969906    6.9026798    6.9285903
:EIG00626:       6.9355628    6.9411764    6.9436000    6.9595469    6.9708045
:EIG00631:       6.9853368    6.9983047    7.0071456    7.0095993    7.0221171
:EIG00636:       7.0285859    7.0403631    7.0471040    7.0577724    7.0613758
:EIG00641:       7.0638632    7.0743418    7.0775757    7.0814973    7.0945380
:EIG00646:       7.1111388    7.1356972    7.1465795    7.1515696    7.1707458
 
:EIG00651:       7.1727391    7.1968165    7.1994541    7.2097073    7.2206464
:EIG00656:       7.2250087    7.2318864    7.2373911    7.2453519    7.2636982
:EIG00661:       7.2708616    7.2735597    7.2865573    7.2989367    7.3050018
:EIG00666:       7.3086647    7.3182885    7.3194374    7.3320997    7.3561914
:EIG00671:       7.3625487    7.3684997    7.4016666    7.4125545    7.4162471
:EIG00676:       7.4233882    7.4360235    7.4377698    7.4445678    7.4584951
:EIG00681:       7.4674089    7.4821026    7.4824984    7.4964449    7.4985384
       ********************************************************

:KPT   :      NUMBER OF K-POINTS:    272

------- alpha_Pu_0.scfso --------
   0.0   0.0 angle (M,z), angle (M,x) deg
 
        SPIN-ORBIT EIGENVALUES:
     K=   0.00000   0.00000   0.00000            1
      MATRIX SIZE= 1370   WEIGHT= 1.00
     EIGENVALUES ARE:
          -1.7387147   -1.7387147   -1.7036709   -1.7036709   -1.6965459
          -1.6965459   -1.6634999   -1.6634999   -1.6395748   -1.6395748
          -1.6355060   -1.6355060   -1.6175410   -1.6175410   -1.6052077
          -1.6052077   -1.6016193   -1.6016193   -1.5788016   -1.5788016
          -1.5716002   -1.5716002   -1.5602879   -1.5602879   -1.5400954
          -1.5400954   -1.5341218   -1.5341218   -1.5262369   -1.5262369
          -1.5089053   -1.5089053   -0.1957085   -0.1957085   -0.1949362
          -0.1949362   -0.1726968   -0.1726968   -0.1683685   -0.1683685

          -0.1606909   -0.1606909   -0.1589275   -0.1589275   -0.1498172
          -0.1498172   -0.1477873   -0.1477873   -0.1156889   -0.1156889
          -0.1055929   -0.1055929   -0.1055209   -0.1055209   -0.1014357
          -0.1014357   -0.0828798   -0.0828798    0.0049515    0.0049515
           0.0341666    0.0341666    0.1200986    0.1200986    0.2717526
           0.2717526    0.3021696    0.3021696    0.3041857    0.3041857
           0.3163114    0.3163114    0.3352120    0.3352120    0.3500013
           0.3500013    0.3546578    0.3546578    0.3894255    0.3894255

           0.4289000    0.4289000    0.4357745    0.4357745    0.4395004
           0.4395004    0.4569069    0.4569069    0.4793763    0.4793763
           0.5047190    0.5047190    0.5238095    0.5238095    0.5294557
           0.5294557    0.5742329    0.5742329    0.6023713    0.6023713
           0.6166035    0.6166035    0.6578089    0.6578089    0.6705651
           0.6705651    0.6759767    0.6759767    0.6894328    0.6894328
           0.7121871    0.7121871    0.7330056    0.7330056    0.7515231
           0.7515231    0.7597040    0.7597040    0.7875358    0.7875358

           0.8132210    0.8132210    0.8366113    0.8366113    0.8456953
           0.8456953    0.8670620    0.8670620    1.4808908    1.4808908
           1.4827729    1.4827729    1.5058154    1.5058154    1.5109157
           1.5109157    1.5194381    1.5194381    1.5380586    1.5380586
           1.5391694    1.5391694    1.5453852    1.5453852    1.5615989
           1.5615989    1.5652475    1.5652475    1.5678841    1.5678841
           1.5809645    1.5809645    1.5815855    1.5815855    1.5915484
           1.5915484    1.6070412    1.6070412    1.6085177    1.6085177

           1.6098751    1.6098751    1.6187514    1.6187514    1.6194190
           1.6194190    1.6289954    1.6289954    1.6395909    1.6395909
           1.6412605    1.6412605    1.6431279    1.6431279    1.6477658
           1.6477658    1.6483701    1.6483701    1.6509029    1.6509029
           1.6547372    1.6547372    1.6594897    1.6594897    1.6616254
           1.6616254    1.6657114    1.6657114    1.6679067    1.6679067
           1.6714892    1.6714892    1.6754531    1.6754531    1.6791093
           1.6791093    1.6806665    1.6806665    1.6831870    1.6831870

           1.6862550    1.6862550    1.6885447    1.6885447    1.6897493
           1.6897493    1.6932111    1.6932111    1.6940152    1.6940152
           1.6959079    1.6959079    1.7006323    1.7006323    1.7031420
           1.7031420    1.7040549    1.7040549    1.7095961    1.7095961
           1.7097663    1.7097663    1.7148996    1.7148996    1.7159171
           1.7159171    1.7189089    1.7189089    1.7208827    1.7208827
           1.7262668    1.7262668    1.7302046    1.7302046    1.7332991
           1.7332991    1.7338889    1.7338889    1.7403130    1.7403130

           1.7475655    1.7475655    1.7488994    1.7488994    1.7607287
           1.7607287    1.7608984    1.7608984    1.7644981    1.7644981
           1.7714198    1.7714198    1.7833048    1.7833048    1.7866132
           1.7866132    1.7867697    1.7867697    1.7915859    1.7915859
           1.7942480    1.7942480    1.7973829    1.7973829    1.7990992
           1.7990992    1.8070837    1.8070837    1.8202365    1.8202365
           1.8222727    1.8222727    1.8271818    1.8271818    1.8311582
           1.8311582    1.8378674    1.8378674    1.8400079    1.8400079

           1.8433386    1.8433386    1.8452369    1.8452369    1.8506450
           1.8506450    1.8548684    1.8548684    1.8570194    1.8570194
           1.8598936    1.8598936    1.8655121    1.8655121    1.8684922
           1.8684922    1.8708409    1.8708409    1.8746413    1.8746413
           1.8795883    1.8795883    1.8840547    1.8840547    1.8850353
           1.8850353    1.8899379    1.8899379    1.8906706    1.8906706
           1.8924385    1.8924385    1.8928343    1.8928343    1.8967372
           1.8967372    1.8997269    1.8997269    1.9011054    1.9011054

           1.9047925    1.9047925    1.9054932    1.9054932    1.9094342
           1.9094342    1.9104839    1.9104839    1.9128058    1.9128058
           1.9140164    1.9140164    1.9159968    1.9159968    1.9175959
           1.9175959    1.9226147    1.9226147    1.9232708    1.9232708
           1.9246389    1.9246389    1.9278978    1.9278978    1.9293486
           1.9293486    1.9344675    1.9344675    1.9351384    1.9351384
           1.9400444    1.9400444    1.9403262    1.9403262    1.9443945
           1.9443945    1.9480555    1.9480555    1.9482341    1.9482341

           1.9527580    1.9527580    1.9540131    1.9540131    1.9584404
           1.9584404    1.9618816    1.9618816    1.9627747    1.9627747
           1.9682605    1.9682605    1.9697302    1.9697302    1.9740791
           1.9740791    1.9773097    1.9773097    1.9816641    1.9816641
           1.9817114    1.9817114    1.9912649    1.9912649    1.9940283
           1.9940283    2.0045053    2.0045053    2.0148098    2.0148098
           2.0234630    2.0234630    2.0245034    2.0245034    2.0621355
           2.0621355    2.0765069    2.0765069    2.0831707    2.0831707

           2.0891149    2.0891149    2.1000382    2.1000382    2.1099987
           2.1099987    2.1154759    2.1154759    2.1367995    2.1367995
           2.1414960    2.1414960    2.1530463    2.1530463    2.1591080
           2.1591080    2.1672314    2.1672314    2.1966513    2.1966513
           2.2031666    2.2031666    2.2152742    2.2152742    2.2160474
           2.2160474    2.2350468    2.2350468    2.2515305    2.2515305
           2.2815846    2.2815846    2.2912881    2.2912881    2.2964666
           2.2964666    2.3142727    2.3142727    2.3274408    2.3274408

           2.3313203    2.3313203    2.3444311    2.3444311    2.3738349
           2.3738349    2.3801925    2.3801925    2.3910059    2.3910059
           2.3987355    2.3987355    2.4164981    2.4164981    2.4382472
           2.4382472    2.4469414    2.4469414    2.4505004    2.4505004
           2.4752659    2.4752659    2.4913006    2.4913006    2.5028349
           2.5028349    2.5133586    2.5133586    2.5138427    2.5138427
           2.5446455    2.5446455    2.5535429    2.5535429    2.5677403
           2.5677403    2.5699355    2.5699355    2.5898928    2.5898928

           2.6164042    2.6164042    2.6308733    2.6308733    2.6429120
           2.6429120    2.6513536    2.6513536    2.6775132    2.6775132
           2.6942747    2.6942747    2.7086929    2.7086929    2.7239453
           2.7239453    2.7419966    2.7419966    2.7500762    2.7500762
           2.7695020    2.7695020    2.7866785    2.7866785    2.7997983
           2.7997983    2.8093407    2.8093407    2.8190793    2.8190793
           2.8378300    2.8378300    2.8594598    2.8594598    2.8671070
           2.8671070    2.8851129    2.8851129    2.8979292    2.8979292

           2.9215404    2.9215404    2.9751617    2.9751617    2.9884511
           2.9884511    3.0026736    3.0026736    3.0752177    3.0752177
           3.1010633    3.1010633    3.1309025    3.1309025    3.1428545
           3.1428545    3.1672083    3.1672083    3.1998050    3.1998050
           3.2031208    3.2031208    3.2170557    3.2170557    3.2259494
           3.2259494    3.2424122    3.2424122    3.2441798    3.2441798
           3.2562209    3.2562209    3.2586646    3.2586646    3.2729508
           3.2729508    3.2758729    3.2758729    3.2977507    3.2977507

           3.3123702    3.3123702    3.3255334    3.3255334    3.3271572
           3.3271572    3.3365239    3.3365239    3.3400095    3.3400095
           3.3655051    3.3655051    3.4078768    3.4078768    3.4157125
           3.4157125    3.4444669    3.4444669    3.4514439    3.4514439
           3.4520806    3.4520806    3.4736957    3.4736957    3.4874135
           3.4874135    3.5048293    3.5048293    3.5235916    3.5235916
           3.5561067    3.5561067    3.5581091    3.5581091    3.5731528
           3.5731528    3.5878395    3.5878395    3.5985404    3.5985404

           3.6069135    3.6069135    3.6271789    3.6271789    3.6341275
           3.6341275    3.6714546    3.6714546    3.6749276    3.6749276
           3.6797759    3.6797759    3.6939688    3.6939688    3.6980421
           3.6980421    3.7104077    3.7104077    3.7288882    3.7288882
           3.7435822    3.7435822    3.7465970    3.7465970    3.7603338
           3.7603338    3.7638874    3.7638874    3.7708408    3.7708408
           3.7800235    3.7800235    3.7829476    3.7829476    3.8022284
           3.8022284    3.8082423    3.8082423    3.8351781    3.8351781

           3.8445362    3.8445362    3.8493418    3.8493418    3.8592154
           3.8592154    3.8914004    3.8914004    3.9005094    3.9005094
           3.9145273    3.9145273    3.9191028    3.9191028    3.9281520
           3.9281520    3.9388428    3.9388428    3.9515303    3.9515303
           3.9643957    3.9643957    3.9671963    3.9671963    3.9769527
           3.9769527    3.9856243    3.9856243    4.0032354    4.0032354
           4.0232265    4.0232265    4.0481476    4.0481476    4.0557004
           4.0557004    4.0618418    4.0618418    4.0906310    4.0906310

           4.0910699    4.0910699    4.1030920    4.1030920    4.1160403
           4.1160403    4.1214835    4.1214835    4.1307601    4.1307601
           4.1390784    4.1390784    4.1405051    4.1405051    4.1598118
           4.1598118    4.1655539    4.1655539    4.1737913    4.1737913
           4.2009022    4.2009022    4.2117672    4.2117672    4.2267936
           4.2267936    4.2374342    4.2374342    4.2510040    4.2510040
           4.2841587    4.2841587    4.2980634    4.2980634    4.3034580
           4.3034580    4.3133239    4.3133239    4.3310487    4.3310487

           4.3352130    4.3352130    4.3535411    4.3535411    4.3538302
           4.3538302    4.3594732    4.3594732    4.3828543    4.3828543
           4.3887878    4.3887878    4.4008555    4.4008555    4.4112075
           4.4112075    4.4367618    4.4367618    4.4434690    4.4434690
           4.4576549    4.4576549    4.4706011    4.4706011    4.4720440
           4.4720440    4.4802171    4.4802171    4.4823961    4.4823961

       ********************************************************

------- alpha_Pu_0.scf2 --------
:GMA  : POTENTIAL AND CHARGE CUT-OFF  12.00 Ry**.5
         Bandranges (emin - emax) and occupancy:
:BAN00250: 250    1.764498    1.781473  1.00000000
:BAN00251: 251    1.768312    1.781935  1.00000000
:BAN00252: 252    1.768312    1.781935  1.00000000
:BAN00253: 253    1.772923    1.786686  0.98510759
:BAN00254: 254    1.772923    1.786686  0.98510759
:BAN00255: 255    1.776473    1.788200  0.78382243
:BAN00256: 256    1.776473    1.788200  0.78382243
:BAN00257: 257    1.780574    1.792742  0.23083577
:BAN00258: 258    1.780574    1.792742  0.23083577
:BAN00259: 259    1.784365    1.793714  0.00023421
:BAN00260: 260    1.784365    1.793714  0.00023421
:BAN00261: 261    1.789657    1.798049  0.00000000
:BAN00262: 262    1.789657    1.798049  0.00000000
:BAN00263: 263    1.793215    1.800881  0.00000000
:BAN00264: 264    1.793215    1.800881  0.00000000
:BAN00265: 265    1.798314    1.809364  0.00000000
        Energy to separate low and high energystates:    1.41907


:NLDA  : NUMBER OF ELECTRONS          = 256.000

:FLDA  : F E R M I - ENERGY           =   2.28498




:POS001: AT.NR.  -1 POSITION = 0.33900 0.25000 0.15650  MULTIPLICITY =  2

       LMMAX 28
       LM=   0 0  1 1 -1 1  2 0  2 2 -2 2  3 1 -3 1  3 3 -3 3  4 0  4 2 -4 2  4 4 -4 4  5 1 -5 1
         5 3 -5 3  5 5 -5 5  6 0  6 2 -6 2  6 4 -6 4  6 6 -6 6




:POS002: AT.NR.  -2 POSITION = 0.33900 0.25000 0.15650  MULTIPLICITY =  2

       LMMAX 28
       LM=   0 0  1 1 -1 1  2 0  2 2 -2 2  3 1 -3 1  3 3 -3 3  4 0  4 2 -4 2  4 4 -4 4  5 1 -5 1
         5 3 -5 3  5 5 -5 5  6 0  6 2 -6 2  6 4 -6 4  6 6 -6 6




:POS003: AT.NR.  -3 POSITION = 0.33900 0.25000 0.15650  MULTIPLICITY =  2

       LMMAX 28
       LM=   0 0  1 1 -1 1  2 0  2 2 -2 2  3 1 -3 1  3 3 -3 3  4 0  4 2 -4 2  4 4 -4 4  5 1 -5 1
         5 3 -5 3  5 5 -5 5  6 0  6 2 -6 2  6 4 -6 4  6 6 -6 6




:POS004: AT.NR.  -4 POSITION = 0.33900 0.25000 0.15650  MULTIPLICITY =  2

       LMMAX 28
       LM=   0 0  1 1 -1 1  2 0  2 2 -2 2  3 1 -3 1  3 3 -3 3  4 0  4 2 -4 2  4 4 -4 4  5 1 -5 1
         5 3 -5 3  5 5 -5 5  6 0  6 2 -6 2  6 4 -6 4  6 6 -6 6




:POS005: AT.NR.  -5 POSITION = 0.33900 0.25000 0.15650  MULTIPLICITY =  2

       LMMAX 28
       LM=   0 0  1 1 -1 1  2 0  2 2 -2 2  3 1 -3 1  3 3 -3 3  4 0  4 2 -4 2  4 4 -4 4  5 1 -5 1
         5 3 -5 3  5 5 -5 5  6 0  6 2 -6 2  6 4 -6 4  6 6 -6 6




:POS006: AT.NR.  -6 POSITION = 0.33900 0.25000 0.15650  MULTIPLICITY =  2

       LMMAX 28
       LM=   0 0  1 1 -1 1  2 0  2 2 -2 2  3 1 -3 1  3 3 -3 3  4 0  4 2 -4 2  4 4 -4 4  5 1 -5 1
         5 3 -5 3  5 5 -5 5  6 0  6 2 -6 2  6 4 -6 4  6 6 -6 6




:POS007: AT.NR.  -7 POSITION = 0.33900 0.25000 0.15650  MULTIPLICITY =  2

       LMMAX 28
       LM=   0 0  1 1 -1 1  2 0  2 2 -2 2  3 1 -3 1  3 3 -3 3  4 0  4 2 -4 2  4 4 -4 4  5 1 -5 1
         5 3 -5 3  5 5 -5 5  6 0  6 2 -6 2  6 4 -6 4  6 6 -6 6




:POS008: AT.NR.  -8 POSITION = 0.33900 0.25000 0.15650  MULTIPLICITY =  2

       LMMAX 28
       LM=   0 0  1 1 -1 1  2 0  2 2 -2 2  3 1 -3 1  3 3 -3 3  4 0  4 2 -4 2  4 4 -4 4  5 1 -5 1
         5 3 -5 3  5 5 -5 5  6 0  6 2 -6 2  6 4 -6 4  6 6 -6 6
:FER DMFT Fermi Energy   1.78660
:EORB    0.98776530
:SUM SUM OF DMFT BAND ENERGIES  195.76689310

:CHA001: TOTAL CHARGE INSIDE SPHERE   1 =    12.162495
:PCS001: PARTIAL CHARGES SPHERE =  1 S,P,D,F,PX,PY,PZ,D-Z2,D-X2Y2,D-XY,D-XZ,D-YZ 
:QTL001: 1.9420 4.5727 0.9582 4.6689 2.7476 2.5378 2.4924 0.1902 0.2161 0.2197 0.2147 0.1874
        Q-s-low E-s-low   Q-p-low E-p-low   Q-d-low E-d-low   Q-f-low E-f-low
:EPL001:  1.8927 -1.5714    4.4488  0.3129    0.0992  0.4076    0.0542  0.4490
        Q-s-hi  E-s-hi    Q-p-hi  E-p-hi    Q-d-hi  E-d-hi    Q-f-hi  E-f-hi 
:EPH001:  0.0493  1.6081    0.1239  1.6304    0.8590  1.6024    4.6147  1.7062

                      QXX         QXY         QYY         QZZ       UP TO R

:VZZ001:            -4.70891   -10.96828    -8.45065    13.15956       2.150

:CHA002: TOTAL CHARGE INSIDE SPHERE   2 =    11.991750
:PCS002: PARTIAL CHARGES SPHERE =  2 S,P,D,F,PX,PY,PZ,D-Z2,D-X2Y2,D-XY,D-XZ,D-YZ 
:QTL002: 1.9474 4.5880 0.8489 4.5924 2.5244 2.6904 2.6056 0.1846 0.1808 0.1718 0.1716 0.1918
        Q-s-low E-s-low   Q-p-low E-p-low   Q-d-low E-d-low   Q-f-low E-f-low
:EPL002:  1.8877 -1.5734    4.4416  0.3210    0.0724  0.4324    0.0384  0.4623
        Q-s-hi  E-s-hi    Q-p-hi  E-p-hi    Q-d-hi  E-d-hi    Q-f-hi  E-f-hi 
:EPH002:  0.0597  1.5986    0.1465  1.6251    0.7765  1.6037    4.5540  1.7090

                      QXX         QXY         QYY         QZZ       UP TO R

:VZZ002:           -15.80222     9.48920     6.98161     8.82062       2.150

:CHA003: TOTAL CHARGE INSIDE SPHERE   3 =    12.021584
:PCS003: PARTIAL CHARGES SPHERE =  3 S,P,D,F,PX,PY,PZ,D-Z2,D-X2Y2,D-XY,D-XZ,D-YZ 
:QTL003: 1.9477 4.5811 0.8638 4.6139 2.6178 2.6032 2.5876 0.1830 0.1896 0.1772 0.1880 0.1798
        Q-s-low E-s-low   Q-p-low E-p-low   Q-d-low E-d-low   Q-f-low E-f-low
:EPL003:  1.8885 -1.5710    4.4397  0.3204    0.0768  0.4404    0.0415  0.4845
        Q-s-hi  E-s-hi    Q-p-hi  E-p-hi    Q-d-hi  E-d-hi    Q-f-hi  E-f-hi 
:EPH003:  0.0592  1.5969    0.1414  1.6289    0.7870  1.6041    4.5723  1.7036

                      QXX         QXY         QYY         QZZ       UP TO R

:VZZ003:            -6.30384   -13.94315     2.80593     3.49791       2.150

:CHA004: TOTAL CHARGE INSIDE SPHERE   4 =    11.987740
:PCS004: PARTIAL CHARGES SPHERE =  4 S,P,D,F,PX,PY,PZ,D-Z2,D-X2Y2,D-XY,D-XZ,D-YZ 
:QTL004: 1.9503 4.5919 0.8406 4.5907 2.6290 2.6232 2.5883 0.1764 0.1775 0.1807 0.1744 0.1814
        Q-s-low E-s-low   Q-p-low E-p-low   Q-d-low E-d-low   Q-f-low E-f-low
:EPL004:  1.8870 -1.5732    4.4321  0.3194    0.0687  0.4282    0.0372  0.4726
        Q-s-hi  E-s-hi    Q-p-hi  E-p-hi    Q-d-hi  E-d-hi    Q-f-hi  E-f-hi 
:EPH004:  0.0634  1.5973    0.1598  1.6290    0.7719  1.6047    4.5535  1.7101

                      QXX         QXY         QYY         QZZ       UP TO R

:VZZ004:            -1.99724    16.96343    -0.87349     2.87073       2.150

:CHA005: TOTAL CHARGE INSIDE SPHERE   5 =    11.974528
:PCS005: PARTIAL CHARGES SPHERE =  5 S,P,D,F,PX,PY,PZ,D-Z2,D-X2Y2,D-XY,D-XZ,D-YZ 
:QTL005: 1.9499 4.5917 0.8456 4.5730 2.5140 2.6956 2.6185 0.1833 0.1748 0.1757 0.1649 0.1966
        Q-s-low E-s-low   Q-p-low E-p-low   Q-d-low E-d-low   Q-f-low E-f-low
:EPL005:  1.8868 -1.5721    4.4386  0.3235    0.0685  0.4274    0.0367  0.4665
        Q-s-hi  E-s-hi    Q-p-hi  E-p-hi    Q-d-hi  E-d-hi    Q-f-hi  E-f-hi 
:EPH005:  0.0631  1.5959    0.1532  1.6296    0.7771  1.6048    4.5362  1.7119

                      QXX         QXY         QYY         QZZ       UP TO R

:VZZ005:           -35.43148     0.70624    22.09735    13.33413       2.150

:CHA006: TOTAL CHARGE INSIDE SPHERE   6 =    11.940777
:PCS006: PARTIAL CHARGES SPHERE =  6 S,P,D,F,PX,PY,PZ,D-Z2,D-X2Y2,D-XY,D-XZ,D-YZ 
:QTL006: 1.9520 4.5789 0.8207 4.5762 2.5981 2.6156 2.5940 0.1727 0.1647 0.1798 0.1729 0.1774
        Q-s-low E-s-low   Q-p-low E-p-low   Q-d-low E-d-low   Q-f-low E-f-low
:EPL006:  1.8856 -1.5726    4.4433  0.3261    0.0640  0.4376    0.0337  0.4820
        Q-s-hi  E-s-hi    Q-p-hi  E-p-hi    Q-d-hi  E-d-hi    Q-f-hi  E-f-hi 
:EPH006:  0.0665  1.5847    0.1355  1.6279    0.7567  1.6062    4.5424  1.7103

                      QXX         QXY         QYY         QZZ       UP TO R

:VZZ006:           -14.31140    -8.23160    -0.71650    15.02789       2.150

:CHA007: TOTAL CHARGE INSIDE SPHERE   7 =    12.028583
:PCS007: PARTIAL CHARGES SPHERE =  7 S,P,D,F,PX,PY,PZ,D-Z2,D-X2Y2,D-XY,D-XZ,D-YZ 
:QTL007: 1.9474 4.5893 0.8647 4.6104 2.7019 2.5117 2.6014 0.1887 0.1745 0.1853 0.2041 0.1689
        Q-s-low E-s-low   Q-p-low E-p-low   Q-d-low E-d-low   Q-f-low E-f-low
:EPL007:  1.8892 -1.5702    4.4409  0.3211    0.0791  0.4206    0.0434  0.4558
        Q-s-hi  E-s-hi    Q-p-hi  E-p-hi    Q-d-hi  E-d-hi    Q-f-hi  E-f-hi 
:EPH007:  0.0582  1.5911    0.1484  1.6232    0.7857  1.6032    4.5670  1.7052

                      QXX         QXY         QYY         QZZ       UP TO R

:VZZ007:             0.67961    13.00816   -13.28907    12.60946       2.150

:CHA008: TOTAL CHARGE INSIDE SPHERE   8 =    11.784394
:PCS008: PARTIAL CHARGES SPHERE =  8 S,P,D,F,PX,PY,PZ,D-Z2,D-X2Y2,D-XY,D-XZ,D-YZ 
:QTL008: 1.9535 4.6148 0.7020 4.5058 2.5523 2.6453 2.6384 0.1627 0.1339 0.1370 0.1370 0.1626
        Q-s-low E-s-low   Q-p-low E-p-low   Q-d-low E-d-low   Q-f-low E-f-low
:EPL008:  1.8809 -1.5713    4.4364  0.3365    0.0385  0.4478    0.0197  0.4802
        Q-s-hi  E-s-hi    Q-p-hi  E-p-hi    Q-d-hi  E-d-hi    Q-f-hi  E-f-hi 
:EPH008:  0.0726  1.5822    0.1784  1.6215    0.6635  1.6055    4.4861  1.7029

                      QXX         QXY         QYY         QZZ       UP TO R

:VZZ008:           -44.87435     9.42392    32.91202    11.96232       2.150

:CHA  : TOTAL CHARGE INSIDE UNIT CELL =     256.000000

:ESUM  : SUM OF EIGENVALUES =         195.622108296


------- alpha_Pu_0.scfc --------

        1.ATOM      Pu  0+               21 CORE STATES
       CORE-FORCE in mRy/a.u. = |F|      Fx             Fy             Fz
:FCO001:   1.ATOM       3114.254      -3059.105       -583.484          0.000

:1S 001: 1S               -8965.968877700 Ry
:2S 001: 2S               -1686.643553462 Ry
:2PP001: 2P*              -1627.336256535 Ry
:2P 001: 2P               -1314.185701606 Ry
:3S 001: 3S                -427.192109568 Ry
:3PP001: 3P*               -400.267311339 Ry
:3P 001: 3P                -327.706495646 Ry
:3DD001: 3D*               -285.465554858 Ry
:3D 001: 3D                -270.923603527 Ry
:4S 001: 4S                -108.672191900 Ry
:4PP001: 4P*                -96.484333661 Ry
:4P 001: 4P                 -77.338689875 Ry
:4DD001: 4D*                -58.051283323 Ry
:4D 001: 4D                 -54.556649450 Ry
:5S 001: 5S                 -22.825640401 Ry
:5PP001: 5P*                -18.007343063 Ry
:5P 001: 5P                 -13.317069952 Ry
:4FF001: 4F*                -29.157422111 Ry
:4F 001: 4F                 -28.229305965 Ry
:5DD001: 5D*                 -6.280184537 Ry
:5D 001: 5D                  -5.580720939 Ry

        2.ATOM      Pu  0+               21 CORE STATES
       CORE-FORCE in mRy/a.u. = |F|      Fx             Fy             Fz
:FCO002:   2.ATOM       1849.089        244.261      -1832.885          0.000

:1S 002: 1S               -8965.968268181 Ry
:2S 002: 2S               -1686.643718956 Ry
:2PP002: 2P*              -1627.336392881 Ry
:2P 002: 2P               -1314.185875600 Ry
:3S 002: 3S                -427.191265127 Ry
:3PP002: 3P*               -400.266521275 Ry
:3P 002: 3P                -327.705628405 Ry
:3DD002: 3D*               -285.464899315 Ry
:3D 002: 3D                -270.922900886 Ry
:4S 002: 4S                -108.671421563 Ry
:4PP002: 4P*                -96.483566958 Ry
:4P 002: 4P                 -77.337955377 Ry
:4DD002: 4D*                -58.050569387 Ry
:4D 002: 4D                 -54.555941194 Ry
:5S 002: 5S                 -22.825040366 Ry
:5PP002: 5P*                -18.006757949 Ry
:5P 002: 5P                 -13.316518998 Ry
:4FF002: 4F*                -29.156597719 Ry
:4F 002: 4F                 -28.228486836 Ry
:5DD002: 5D*                 -6.279550140 Ry
:5D 002: 5D                  -5.580034396 Ry

        3.ATOM      Pu  0+               21 CORE STATES
       CORE-FORCE in mRy/a.u. = |F|      Fx             Fy             Fz
:FCO003:   3.ATOM       6231.601      -4884.016      -3870.303          0.000

:1S 003: 1S               -8965.964513288 Ry
:2S 003: 2S               -1686.639584818 Ry
:2PP003: 2P*              -1627.332334176 Ry
:2P 003: 2P               -1314.181743991 Ry
:3S 003: 3S                -427.186951894 Ry
:3PP003: 3P*               -400.262219305 Ry
:3P 003: 3P                -327.701319024 Ry
:3DD003: 3D*               -285.460581882 Ry
:3D 003: 3D                -270.918579190 Ry
:4S 003: 4S                -108.667249616 Ry
:4PP003: 4P*                -96.479394721 Ry
:4P 003: 4P                 -77.333816134 Ry
:4DD003: 4D*                -58.046421421 Ry
:4D 003: 4D                 -54.551802077 Ry
:5S 003: 5S                 -22.821179563 Ry
:5PP003: 5P*                -18.002947722 Ry
:5P 003: 5P                 -13.312883322 Ry
:4FF003: 4F*                -29.152426159 Ry
:4F 003: 4F                 -28.224320429 Ry
:5DD003: 5D*                 -6.276169625 Ry
:5D 003: 5D                  -5.576743818 Ry

        4.ATOM      Pu  0+               21 CORE STATES
       CORE-FORCE in mRy/a.u. = |F|      Fx             Fy             Fz
:FCO004:   4.ATOM       3571.212       3545.111        430.985          0.000

:1S 004: 1S               -8965.965562648 Ry
:2S 004: 2S               -1686.641336504 Ry
:2PP004: 2P*              -1627.333960263 Ry
:2P 004: 2P               -1314.183495487 Ry
:3S 004: 3S                -427.188983879 Ry
:3PP004: 3P*               -400.264230144 Ry
:3P 004: 3P                -327.703354190 Ry
:3DD004: 3D*               -285.462625136 Ry
:3D 004: 3D                -270.920630689 Ry
:4S 004: 4S                -108.669250826 Ry
:4PP004: 4P*                -96.481394644 Ry
:4P 004: 4P                 -77.335810611 Ry
:4DD004: 4D*                -58.048426656 Ry
:4D 004: 4D                 -54.553807027 Ry
:5S 004: 5S                 -22.823180052 Ry
:5PP004: 5P*                -18.004924137 Ry
:5P 004: 5P                 -13.314775446 Ry
:4FF004: 4F*                -29.154457552 Ry
:4F 004: 4F                 -28.226350712 Ry
:5DD004: 5D*                 -6.277913820 Ry
:5D 004: 5D                  -5.578433369 Ry

        5.ATOM      Pu  0+               21 CORE STATES
       CORE-FORCE in mRy/a.u. = |F|      Fx             Fy             Fz
:FCO005:   5.ATOM       2145.613      -1047.870      -1872.331          0.000

:1S 005: 1S               -8965.966514454 Ry
:2S 005: 2S               -1686.642439301 Ry
:2PP005: 2P*              -1627.335015745 Ry
:2P 005: 2P               -1314.184596855 Ry
:3S 005: 3S                -427.190386137 Ry
:3PP005: 3P*               -400.265615213 Ry
:3P 005: 3P                -327.704758323 Ry
:3DD005: 3D*               -285.463998573 Ry
:3D 005: 3D                -270.922015217 Ry
:4S 005: 4S                -108.670542833 Ry
:4PP005: 4P*                -96.482686347 Ry
:4P 005: 4P                 -77.337073332 Ry
:4DD005: 4D*                -58.049692311 Ry
:4D 005: 4D                 -54.555065426 Ry
:5S 005: 5S                 -22.824208011 Ry
:5PP005: 5P*                -18.005904383 Ry
:5P 005: 5P                 -13.315589565 Ry
:4FF005: 4F*                -29.155758704 Ry
:4F 005: 4F                 -28.227647313 Ry
:5DD005: 5D*                 -6.278473394 Ry
:5D 005: 5D                  -5.578905290 Ry

        6.ATOM      Pu  0+               21 CORE STATES
       CORE-FORCE in mRy/a.u. = |F|      Fx             Fy             Fz
:FCO006:   6.ATOM       5715.101      -4588.650      -3406.857          0.000

:1S 006: 1S               -8965.965611823 Ry
:2S 006: 2S               -1686.640858538 Ry
:2PP006: 2P*              -1627.333628618 Ry
:2P 006: 2P               -1314.183027034 Ry
:3S 006: 3S                -427.187789074 Ry
:3PP006: 3P*               -400.263083561 Ry
:3P 006: 3P                -327.702145073 Ry
:3DD006: 3D*               -285.461489136 Ry
:3D 006: 3D                -270.919466188 Ry
:4S 006: 4S                -108.668048785 Ry
:4PP006: 4P*                -96.480196658 Ry
:4P 006: 4P                 -77.334614381 Ry
:4DD006: 4D*                -58.047227148 Ry
:4D 006: 4D                 -54.552605081 Ry
:5S 006: 5S                 -22.821860751 Ry
:5PP006: 5P*                -18.003612811 Ry
:5P 006: 5P                 -13.313483012 Ry
:4FF006: 4F*                -29.153189288 Ry
:4F 006: 4F                 -28.225083215 Ry
:5DD006: 5D*                 -6.276609622 Ry
:5D 006: 5D                  -5.577118348 Ry

        7.ATOM      Pu  0+               21 CORE STATES
       CORE-FORCE in mRy/a.u. = |F|      Fx             Fy             Fz
:FCO007:   7.ATOM       5786.087       3887.564      -4285.516          0.000

:1S 007: 1S               -8965.963893429 Ry
:2S 007: 2S               -1686.639351649 Ry
:2PP007: 2P*              -1627.332009965 Ry
:2P 007: 2P               -1314.181506630 Ry
:3S 007: 3S                -427.187082827 Ry
:3PP007: 3P*               -400.262325083 Ry
:3P 007: 3P                -327.701456748 Ry
:3DD007: 3D*               -285.460691145 Ry
:3D 007: 3D                -270.918702270 Ry
:4S 007: 4S                -108.667378236 Ry
:4PP007: 4P*                -96.479521318 Ry
:4P 007: 4P                 -77.333940921 Ry
:4DD007: 4D*                -58.046550138 Ry
:4D 007: 4D                 -54.551931795 Ry
:5S 007: 5S                 -22.821355067 Ry
:5PP007: 5P*                -18.003112611 Ry
:5P 007: 5P                 -13.313014301 Ry
:4FF007: 4F*                -29.152589464 Ry
:4F 007: 4F                 -28.224483186 Ry
:5DD007: 5D*                 -6.276256530 Ry
:5D 007: 5D                  -5.576817092 Ry

        8.ATOM      Pu  0+               21 CORE STATES
       CORE-FORCE in mRy/a.u. = |F|      Fx             Fy             Fz
:FCO008:   8.ATOM       1446.046      -1316.512       -598.200          0.000

:1S 008: 1S               -8965.955358080 Ry
:2S 008: 2S               -1686.631529283 Ry
:2PP008: 2P*              -1627.324245942 Ry
:2P 008: 2P               -1314.173696254 Ry
:3S 008: 3S                -427.177296076 Ry
:3PP008: 3P*               -400.252641811 Ry
:3P 008: 3P                -327.691644869 Ry
:3DD008: 3D*               -285.451212845 Ry
:3D 008: 3D                -270.909140657 Ry
:4S 008: 4S                -108.658107444 Ry
:4PP008: 4P*                -96.470254088 Ry
:4P 008: 4P                 -77.324817829 Ry
:4DD008: 4D*                -58.037444664 Ry
:4D 008: 4D                 -54.542861070 Ry
:5S 008: 5S                 -22.813247288 Ry
:5PP008: 5P*                -17.995143205 Ry
:5P 008: 5P                 -13.305489602 Ry
:4FF008: 4F*                -29.143253464 Ry
:4F 008: 4F                 -28.215169971 Ry
:5DD008: 5D*                 -6.269107034 Ry
:5D 008: 5D                  -5.569758670 Ry

------- alpha_Pu_0.scfm --------

       DENSITY AT NUCLEUS
        JATOM    VALENCE       SEMI-CORE            CORE           TOTAL
:RTO001:   1    23305.177881        0.000000 45141820.652226 45165125.830107
:RTO002:   2    23437.592010        0.000000 45141818.688094 45165256.280105
:RTO003:   3    23434.156759        0.000000 45141817.446654 45165251.603413
:RTO004:   4    23491.561233        0.000000 45141814.786220 45165306.347453
:RTO005:   5    23492.146588        0.000000 45141816.204641 45165308.351229
:RTO006:   6    23534.079430        0.000000 45141818.550712 45165352.630142
:RTO007:   7    23429.409589        0.000000 45141815.310699 45165244.720288
:RTO008:   8    23580.593783        0.000000 45141807.385452 45165387.979234
     
       CHARGES OF NEW CHARGE DENSITY
:NTO  : TOTAL   INTERSTITIAL CHARGE=   64.2159151
:NTO001: TOTAL   CHARGE IN SPHERE  1 =       90.1529991
:NTO002: TOTAL   CHARGE IN SPHERE  2 =       89.9823408
:NTO003: TOTAL   CHARGE IN SPHERE  3 =       90.0121482
:NTO004: TOTAL   CHARGE IN SPHERE  4 =       89.9783277
:NTO005: TOTAL   CHARGE IN SPHERE  5 =       89.9651356
:NTO006: TOTAL   CHARGE IN SPHERE  6 =       89.9313899
:NTO007: TOTAL   CHARGE IN SPHERE  7 =       90.0191456
:NTO008: TOTAL   CHARGE IN SPHERE  8 =       89.7750557

:NEC01: NUCLEAR AND ELECTRONIC CHARGE   1504.00000  1503.84900     1.00010
     
       CHARGES OF OLD CHARGE DENSITY
:OTO  : TOTAL   INTERSTITIAL CHARGE=   64.7362737
:OTO001: TOTAL   CHARGE IN SPHERE  1 =       90.1115548
:OTO002: TOTAL   CHARGE IN SPHERE  2 =       89.9595145
:OTO003: TOTAL   CHARGE IN SPHERE  3 =       89.9838035
:OTO004: TOTAL   CHARGE IN SPHERE  4 =       89.9541259
:OTO005: TOTAL   CHARGE IN SPHERE  5 =       89.9446642
:OTO006: TOTAL   CHARGE IN SPHERE  6 =       89.9133274
:OTO007: TOTAL   CHARGE IN SPHERE  7 =       89.9922119
:OTO008: TOTAL   CHARGE IN SPHERE  8 =       89.7726608

:NEC02: NUCLEAR AND ELECTRONIC CHARGE   1504.00000  1504.00000     1.00000
     
       CONVERGENCE TEST
:DTO001: TOTAL   DIFFERENCE CHARGE**2 IN SPHERE  1 =  0.0402343
:DTO002: TOTAL   DIFFERENCE CHARGE**2 IN SPHERE  2 =  0.0266737
:DTO003: TOTAL   DIFFERENCE CHARGE**2 IN SPHERE  3 =  0.0303880
:DTO004: TOTAL   DIFFERENCE CHARGE**2 IN SPHERE  4 =  0.0285823
:DTO005: TOTAL   DIFFERENCE CHARGE**2 IN SPHERE  5 =  0.0258106
:DTO006: TOTAL   DIFFERENCE CHARGE**2 IN SPHERE  6 =  0.0251869
:DTO007: TOTAL   DIFFERENCE CHARGE**2 IN SPHERE  7 =  0.0298137
:DTO008: TOTAL   DIFFERENCE CHARGE**2 IN SPHERE  8 =  0.0166838

:DIS  :  CHARGE DISTANCE       ( 0.0402343 for atom    1 spin 1)      0.0279217
:BIG check (qbig,qrms,qtot)    0.134D-01   0.202D-01   0.279D-01
 
******************************************************
* MULTISECANT MIXING VER4 OPTIONS                    *
* Unpredicted Step Limit   0.100000                  *
* Plane Wave Dynamic Rescaling                       *
* Dynamic Regularization active                      *
* Upper Cutoff Lambda  1.0E-01 Lower 3.5E-04         *
* SQRT Multiplicity/Degeneracy                       *
* Max Number of Memory Steps    8                    *
******************************************************
 
:PLANE:  INTERSTITIAL TOTAL      7.83851 DISTAN  1.833E-01 % 
:CHARG:  CLM CHARGE   /ATOM    356.61706 DISTAN  9.009E-03 % 
:MIX  :  PRATT  REGULARIZATION: 3.50E-04  GREED: 0.035
     
       CHARGES OF MIXED CHARGE DENSITY
:CTO  : TOTAL   INTERSTITIAL CHARGE=   64.7233462
:CTO001: TOTAL   CHARGE IN SPHERE  1 =       90.1130054
:CTO002: TOTAL   CHARGE IN SPHERE  2 =       89.9603134
:CTO003: TOTAL   CHARGE IN SPHERE  3 =       89.9847956
:CTO004: TOTAL   CHARGE IN SPHERE  4 =       89.9549730
:CTO005: TOTAL   CHARGE IN SPHERE  5 =       89.9453807
:CTO006: TOTAL   CHARGE IN SPHERE  6 =       89.9139595
:CTO007: TOTAL   CHARGE IN SPHERE  7 =       89.9931546
:CTO008: TOTAL   CHARGE IN SPHERE  8 =       89.7727447

:NEC03: NUCLEAR AND ELECTRONIC CHARGE   1504.00000  1504.00000     1.00000


:ENE  : ********** TOTAL ENERGY IN Ry =      -949675.25984169

       TOTAL FORCE IN mRy/a.u. = |F|     Fx             Fy             Fz     with/without FOR in case.in2
:FOR001:   1.ATOM        142.764        138.516        -34.567          0.000 partial forces
:FOR002:   2.ATOM        101.157       -100.194         13.928          0.000 partial forces
:FOR003:   3.ATOM         65.042         63.752         12.891          0.000 partial forces
:FOR004:   4.ATOM         83.295        -73.408        -39.362          0.000 partial forces
:FOR005:   5.ATOM         39.700         36.342        -15.979          0.000 partial forces
:FOR006:   6.ATOM         38.287         37.579         -7.327          0.000 partial forces
:FOR007:   7.ATOM        222.468       -210.478        -72.049          0.000 partial forces
:FOR008:   8.ATOM         66.091         34.975         56.078          0.000 partial forces

       TOTAL FORCE WITH RESPECT TO GLOBAL CARTESIAN COORDINATES:
:FCA001:   1.ATOM                       -34.567          0.000        138.516 partial forces
:FCA002:   2.ATOM                        13.928          0.000       -100.194 partial forces
:FCA003:   3.ATOM                        12.891          0.000         63.752 partial forces
:FCA004:   4.ATOM                       -39.362          0.000        -73.408 partial forces
:FCA005:   5.ATOM                       -15.979          0.000         36.342 partial forces
:FCA006:   6.ATOM                        -7.327          0.000         37.579 partial forces
:FCA007:   7.ATOM                       -72.049          0.000       -210.478 partial forces
:FCA008:   8.ATOM                        56.078          0.000         34.975 partial forces

       TOTAL FORCE WITH RESPECT TO THE GLOBAL COORDINATE SYSTEM:
:FGL001:   1.ATOM               -35.311588552     0.000000000   131.302762375 partial forces
:FGL002:   2.ATOM                14.228015314     0.000000000   -97.287587131 partial forces
:FGL003:   3.ATOM                13.168677873     0.000000000    66.442017827 partial forces
:FGL004:   4.ATOM               -40.209874984     0.000000000   -81.621829936 partial forces
:FGL005:   5.ATOM               -16.323194766     0.000000000    33.007596551 partial forces
:FGL006:   6.ATOM                -7.484826838     0.000000000    36.050044867 partial forces
:FGL007:   7.ATOM               -73.600967500     0.000000000  -225.512760253 partial forces
:FGL008:   8.ATOM                57.285945057     0.000000000    46.677026197 partial forces

------- alpha_Pu_0.scf0 --------


            ---------
:ITE089: 89. ITERATION
            ---------

:NATO :    8 INDEPENDENT AND   16 TOTAL ATOMS IN UNITCELL
       SUBSTANCE: alpha_Pu                                                    

       LATTICE                      = P   
:POT  : POTENTIAL OPTION    5
:LAT  : LATTICE CONSTANTS= 10.84457  8.46041 19.23481    1.571    1.777    1.571
:VOL  : UNIT CELL VOLUME =    1727.57324
       MODE OF CALCULATION IS       = RELA
       NON-SPINPOLARIZED CALCULATION
:IFFT  : FFT-parameters:   90   72  150 Factor: 2.00
       ATOMNUMBER=  1 Pu  0+     VCOUL-ZERO =  0.90954E+00
:EFG001:                        EFG         =   -18.28088   *10**21  V / m**2
                               V20  TOT/SRF=    11.45520    -0.14625
                               V22  TOT/SRF=     2.20405     0.15432
                               V22M TOT/SRF=   -11.45714    -0.11931
                               V21  TOT/SRF=     0.00000     0.00000
                               V21M TOT/SRF=     0.00000     0.00000

             -4.40961  -11.45714    0.00000        5.05355    0.00000    0.00000
            -11.45714   -8.81772    0.00000        0.00000  -18.28088    0.00000
              0.00000    0.00000   13.22733        0.00000    0.00000   13.22733

         MAIN DIRECTIONS OF THE EFG   1.0000  0.8260  0.0000
                                     -0.8260  1.0000  0.0000
                                      0.0000  0.0000  1.0000
:ANG001:  ANGLE WITH OLD X-AXIS =        39.6

:ETA001:                         ASYMM. ETA =     0.44712


       ATOMNUMBER=  2 Pu  0+     VCOUL-ZERO =  0.92980E+00
:EFG002:                        EFG         =   -20.33929   *10**21  V / m**2
                               V20  TOT/SRF=     7.97070     0.02006
                               V22  TOT/SRF=   -11.94668    -0.13710
                               V22M TOT/SRF=    10.24417     0.11838
                               V21  TOT/SRF=     0.00000     0.00000
                               V21M TOT/SRF=     0.00000     0.00000

            -16.54856   10.24417    0.00000      -20.33929    0.00000    0.00000
             10.24417    7.34479    0.00000        0.00000   11.13553    0.00000
              0.00000    0.00000    9.20377        0.00000    0.00000    9.20377

         MAIN DIRECTIONS OF THE EFG   1.0000  0.3700  0.0000
                                     -0.3700  1.0000  0.0000
                                      0.0000  0.0000  1.0000
:ANG002:  ANGLE WITH OLD X-AXIS =        20.3

:ETA002:                         ASYMM. ETA =     0.09498


       ATOMNUMBER=  3 Pu  0+     VCOUL-ZERO =  0.92656E+00
:EFG003:                        EFG         =   -16.84725   *10**21  V / m**2
                               V20  TOT/SRF=     3.51458    -0.00332
                               V22  TOT/SRF=    -4.52358     0.00059
                               V22M TOT/SRF=   -14.11076    -0.01378
                               V21  TOT/SRF=     0.00000     0.00000
                               V21M TOT/SRF=     0.00000     0.00000

             -6.55272  -14.11076    0.00000      -16.84725    0.00000    0.00000
            -14.11076    2.49444    0.00000        0.00000   12.78896    0.00000
              0.00000    0.00000    4.05829        0.00000    0.00000    4.05829

         MAIN DIRECTIONS OF THE EFG   1.0000 -0.7296  0.0000
                                      0.7296  1.0000  0.0000
                                      0.0000  0.0000  1.0000
:ANG003:  ANGLE WITH OLD X-AXIS =        36.1

:ETA003:                         ASYMM. ETA =     0.51823


       ATOMNUMBER=  4 Pu  0+     VCOUL-ZERO =  0.93029E+00
:EFG004:                        EFG         =   -19.21761   *10**21  V / m**2
                               V20  TOT/SRF=     2.71101    -0.01864
                               V22  TOT/SRF=    -0.82328     0.01916
                               V22M TOT/SRF=    17.63320     0.04431
                               V21  TOT/SRF=     0.00000     0.00000
                               V21M TOT/SRF=     0.00000     0.00000

             -2.38848   17.63320    0.00000      -19.21761    0.00000    0.00000
             17.63320   -0.74192    0.00000        0.00000   16.08721    0.00000
              0.00000    0.00000    3.13040        0.00000    0.00000    3.13040

         MAIN DIRECTIONS OF THE EFG   1.0000  0.9544  0.0000
                                     -0.9544  1.0000  0.0000
                                      0.0000  0.0000  1.0000
:ANG004:  ANGLE WITH OLD X-AXIS =        43.7

:ETA004:                         ASYMM. ETA =     0.67422


       ATOMNUMBER=  5 Pu  0+     VCOUL-ZERO =  0.93526E+00
:EFG005:                        EFG         =   -36.89728   *10**21  V / m**2
                               V20  TOT/SRF=    11.92622     0.02813
                               V22  TOT/SRF=   -29.99828    -0.17287
                               V22M TOT/SRF=     0.89635     0.06247
                               V21  TOT/SRF=     0.00000     0.00000
                               V21M TOT/SRF=     0.00000     0.00000

            -36.88389    0.89635    0.00000      -36.89728    0.00000    0.00000
              0.89635   23.11267    0.00000        0.00000   23.12606    0.00000
              0.00000    0.00000   13.77121        0.00000    0.00000   13.77121

         MAIN DIRECTIONS OF THE EFG   1.0000  0.0149  0.0000
                                     -0.0149  1.0000  0.0000
                                      0.0000  0.0000  1.0000
:ANG005:  ANGLE WITH OLD X-AXIS =         0.9

:ETA005:                         ASYMM. ETA =     0.25354


       ATOMNUMBER=  6 Pu  0+     VCOUL-ZERO =  0.93785E+00
:EFG006:                        EFG         =   -18.28395   *10**21  V / m**2
                               V20  TOT/SRF=    12.98846    -0.00201
                               V22  TOT/SRF=    -6.99516    -0.01514
                               V22M TOT/SRF=    -8.20885    -0.07826
                               V21  TOT/SRF=     0.00000     0.00000
                               V21M TOT/SRF=     0.00000     0.00000

            -14.49405   -8.20885    0.00000      -18.28395    0.00000    0.00000
             -8.20885   -0.50373    0.00000        0.00000    3.28617    0.00000
              0.00000    0.00000   14.99778        0.00000    0.00000   14.99778

         MAIN DIRECTIONS OF THE EFG   1.0000 -0.4617  0.0000
                                      0.4617  1.0000  0.0000
                                      0.0000  0.0000  1.0000
:ANG006:  ANGLE WITH OLD X-AXIS =        24.8

:ETA006:                         ASYMM. ETA =     0.64054


       ATOMNUMBER=  7 Pu  0+     VCOUL-ZERO =  0.92542E+00
:EFG007:                        EFG         =   -21.34749   *10**21  V / m**2
                               V20  TOT/SRF=    11.37959     0.00234
                               V22  TOT/SRF=     7.03343     0.14265
                               V22M TOT/SRF=    12.99634     0.03358
                               V21  TOT/SRF=     0.00000     0.00000
                               V21M TOT/SRF=     0.00000     0.00000

              0.46343   12.99634    0.00000        8.20748    0.00000    0.00000
             12.99634  -13.60344    0.00000        0.00000  -21.34749    0.00000
              0.00000    0.00000   13.14001        0.00000    0.00000   13.14001

         MAIN DIRECTIONS OF THE EFG   1.0000 -0.5959  0.0000
                                      0.5959  1.0000  0.0000
                                      0.0000  0.0000  1.0000
:ANG007:  ANGLE WITH OLD X-AXIS =        30.8

:ETA007:                         ASYMM. ETA =     0.23106


       ATOMNUMBER=  8 Pu  0+     VCOUL-ZERO =  0.95370E+00
:EFG008:                        EFG         =   -46.27918   *10**21  V / m**2
                               V20  TOT/SRF=    10.56811     0.06381
                               V22  TOT/SRF=   -39.10844    -0.07317
                               V22M TOT/SRF=     9.20738    -0.00527
                               V21  TOT/SRF=     0.00000     0.00000
                               V21M TOT/SRF=     0.00000     0.00000

            -45.20994    9.20738    0.00000      -46.27918    0.00000    0.00000
              9.20738   33.00694    0.00000        0.00000   34.07618    0.00000
              0.00000    0.00000   12.20300        0.00000    0.00000   12.20300

         MAIN DIRECTIONS OF THE EFG   1.0000  0.1161  0.0000
                                     -0.1161  1.0000  0.0000
                                      0.0000  0.0000  1.0000
:ANG008:  ANGLE WITH OLD X-AXIS =         6.6

:ETA008:                         ASYMM. ETA =     0.47264


     HELLMANN-FEYNMAN-FORCE IN mRy/a.u. = |F|  Fx       Fy             Fz
:FHF001:   1.ATOM       3243.800       3196.086        554.325          0.000

     HELLMANN-FEYNMAN-FORCE IN mRy/a.u. = |F|  Fx       Fy             Fz
:FHF002:   2.ATOM       1869.803       -340.547       1838.529          0.000

     HELLMANN-FEYNMAN-FORCE IN mRy/a.u. = |F|  Fx       Fy             Fz
:FHF003:   3.ATOM       6287.667       4945.683       3882.651          0.000

     HELLMANN-FEYNMAN-FORCE IN mRy/a.u. = |F|  Fx       Fy             Fz
:FHF004:   4.ATOM       3646.793      -3616.273       -470.817          0.000

     HELLMANN-FEYNMAN-FORCE IN mRy/a.u. = |F|  Fx       Fy             Fz
:FHF005:   5.ATOM       2144.067       1078.384       1853.135          0.000

     HELLMANN-FEYNMAN-FORCE IN mRy/a.u. = |F|  Fx       Fy             Fz
:FHF006:   6.ATOM       5734.228       4619.637       3397.105          0.000

     HELLMANN-FEYNMAN-FORCE IN mRy/a.u. = |F|  Fx       Fy             Fz
:FHF007:   7.ATOM       5876.469      -4091.613       4218.008          0.000

     HELLMANN-FEYNMAN-FORCE IN mRy/a.u. = |F|  Fx       Fy             Fz
:FHF008:   8.ATOM       1497.719       1349.869        648.857          0.000

:FIT001: LUSE= 13 SIGMA OF V-XC FIT FOR ATOM  1  0.1066309E-02
:FIT001: LUSE= 13 SIGMA OF V-XC FIT FOR ATOM  1  0.1066309E-02
:FIT002: LUSE= 13 SIGMA OF V-XC FIT FOR ATOM  2  0.5981569E-03
:FIT002: LUSE= 13 SIGMA OF V-XC FIT FOR ATOM  2  0.5981569E-03
:FIT003: LUSE= 13 SIGMA OF V-XC FIT FOR ATOM  3  0.6156515E-03
:FIT003: LUSE= 13 SIGMA OF V-XC FIT FOR ATOM  3  0.6156515E-03
:FIT004: LUSE= 13 SIGMA OF V-XC FIT FOR ATOM  4  0.6246175E-03
:FIT004: LUSE= 13 SIGMA OF V-XC FIT FOR ATOM  4  0.6246175E-03
:FIT005: LUSE= 13 SIGMA OF V-XC FIT FOR ATOM  5  0.5325324E-03
:FIT005: LUSE= 13 SIGMA OF V-XC FIT FOR ATOM  5  0.5325324E-03
:FIT006: LUSE= 13 SIGMA OF V-XC FIT FOR ATOM  6  0.4102635E-03
:FIT006: LUSE= 13 SIGMA OF V-XC FIT FOR ATOM  6  0.4102635E-03
:FIT007: LUSE= 13 SIGMA OF V-XC FIT FOR ATOM  7  0.9984182E-03
:FIT007: LUSE= 13 SIGMA OF V-XC FIT FOR ATOM  7  0.9984182E-03
:FIT008: LUSE= 13 SIGMA OF V-XC FIT FOR ATOM  8  0.2950506E-03
:FIT008: LUSE= 13 SIGMA OF V-XC FIT FOR ATOM  8  0.2950506E-03
:DEN  : DENSITY INTEGRAL  =       -351105.29268224   (Ry)
       ELS_POTENTIAL_AT Z=0 and Z=0.5:   1.09780   0.51941
       ELS_POTENTIAL_AT Y=0 and Y=0.5:   1.40050   1.40050
:VZERO:v0,v0c,v0x   0.15690   1.09780  -0.94090 v5,v5c,v5x  -0.47452   0.51941  -0.99394
:VZERY:v0,v0c,v0x   0.49861   1.40050  -0.90189 v5,v5c,v5x   0.49861   1.40050  -0.90189
:VZERX:v0,v0c,v0x  -0.86118   0.17478  -1.03597 v5,v5c,v5x  -0.74967   0.27878  -1.02845

------- alpha_Pu_0.scf1 --------

          ATOMIC SPHERE DEPENDENT PARAMETERS FOR ATOM  Pu  0+    
:e__0001: OVERALL ENERGY PARAMETER IS    1.5759
          OVERALL BASIS SET ON ATOM IS LAPW
:E0_0001: E( 0)=    1.5759
             APW+lo
:E0_0001: E( 0)=   -1.6470   E(BOTTOM)=   -2.427   E(TOP)=   -0.867
             LOCAL ORBITAL
:E1_0001: E( 1)=   -0.7380   E(BOTTOM)=   -0.738   E(TOP)= -200.000
             APW+lo
:E1_0001: E( 1)=    1.5759
             LOCAL ORBITAL
:E3_0001: E( 3)=    1.5759   E(BOTTOM)=    1.311   E(TOP)= -200.000
             APW+lo
:E2_0001: E( 2)=    1.5759   E(BOTTOM)=    1.456   E(TOP)= -200.000
             APW+lo

          ATOMIC SPHERE DEPENDENT PARAMETERS FOR ATOM  Pu  0+    
:e__0002: OVERALL ENERGY PARAMETER IS    1.5759
          OVERALL BASIS SET ON ATOM IS LAPW
:E0_0002: E( 0)=    1.5759
             APW+lo
:E0_0002: E( 0)=   -1.6420   E(BOTTOM)=   -2.419   E(TOP)=   -0.865
             LOCAL ORBITAL
:E1_0002: E( 1)=   -0.7260   E(BOTTOM)=   -0.726   E(TOP)= -200.000
             APW+lo
:E1_0002: E( 1)=    1.5759
             LOCAL ORBITAL
:E3_0002: E( 3)=    1.5759   E(BOTTOM)=    1.316   E(TOP)= -200.000
             APW+lo
:E2_0002: E( 2)=    1.5759   E(BOTTOM)=    1.471   E(TOP)= -200.000
             APW+lo

          ATOMIC SPHERE DEPENDENT PARAMETERS FOR ATOM  Pu  0+    
:e__0003: OVERALL ENERGY PARAMETER IS    1.5759
          OVERALL BASIS SET ON ATOM IS LAPW
:E0_0003: E( 0)=    1.5759
             APW+lo
:E0_0003: E( 0)=   -1.6405   E(BOTTOM)=   -2.418   E(TOP)=   -0.863
             LOCAL ORBITAL
:E1_0003: E( 1)=   -0.7260   E(BOTTOM)=   -0.726   E(TOP)= -200.000
             APW+lo
:E1_0003: E( 1)=    1.5759
             LOCAL ORBITAL
:E3_0003: E( 3)=    1.5759   E(BOTTOM)=    1.321   E(TOP)= -200.000
             APW+lo
:E2_0003: E( 2)=    1.5759   E(BOTTOM)=    1.471   E(TOP)= -200.000
             APW+lo

          ATOMIC SPHERE DEPENDENT PARAMETERS FOR ATOM  Pu  0+    
:e__0004: OVERALL ENERGY PARAMETER IS    1.5759
          OVERALL BASIS SET ON ATOM IS LAPW
:E0_0004: E( 0)=    1.5759
             APW+lo
:E0_0004: E( 0)=   -1.6410   E(BOTTOM)=   -2.418   E(TOP)=   -0.864
             LOCAL ORBITAL
:E1_0004: E( 1)=   -0.7240   E(BOTTOM)=   -0.724   E(TOP)= -200.000
             APW+lo
:E1_0004: E( 1)=    1.5759
             LOCAL ORBITAL
:E3_0004: E( 3)=    1.5759   E(BOTTOM)=    1.321   E(TOP)= -200.000
             APW+lo
:E2_0004: E( 2)=    1.5759   E(BOTTOM)=    1.476   E(TOP)= -200.000
             APW+lo

          ATOMIC SPHERE DEPENDENT PARAMETERS FOR ATOM  Pu  0+    
:e__0005: OVERALL ENERGY PARAMETER IS    1.5759
          OVERALL BASIS SET ON ATOM IS LAPW
:E0_0005: E( 0)=    1.5759
             APW+lo
:E0_0005: E( 0)=   -1.6395   E(BOTTOM)=   -2.416   E(TOP)=   -0.863
             LOCAL ORBITAL
:E1_0005: E( 1)=   -0.7220   E(BOTTOM)=   -0.722   E(TOP)= -200.000
             APW+lo
:E1_0005: E( 1)=    1.5759
             LOCAL ORBITAL
:E3_0005: E( 3)=    1.5759   E(BOTTOM)=    1.321   E(TOP)= -200.000
             APW+lo
:E2_0005: E( 2)=    1.5759   E(BOTTOM)=    1.476   E(TOP)= -200.000
             APW+lo

          ATOMIC SPHERE DEPENDENT PARAMETERS FOR ATOM  Pu  0+    
:e__0006: OVERALL ENERGY PARAMETER IS    1.5759
          OVERALL BASIS SET ON ATOM IS LAPW
:E0_0006: E( 0)=    1.5759
             APW+lo
:E0_0006: E( 0)=   -1.6385   E(BOTTOM)=   -2.414   E(TOP)=   -0.863
             LOCAL ORBITAL
:E1_0006: E( 1)=   -0.7200   E(BOTTOM)=   -0.720   E(TOP)= -200.000
             APW+lo
:E1_0006: E( 1)=    1.5759
             LOCAL ORBITAL
:E3_0006: E( 3)=    1.5759   E(BOTTOM)=    1.321   E(TOP)= -200.000
             APW+lo
:E2_0006: E( 2)=    1.5759   E(BOTTOM)=    1.481   E(TOP)= -200.000
             APW+lo

          ATOMIC SPHERE DEPENDENT PARAMETERS FOR ATOM  Pu  0+    
:e__0007: OVERALL ENERGY PARAMETER IS    1.5759
          OVERALL BASIS SET ON ATOM IS LAPW
:E0_0007: E( 0)=    1.5759
             APW+lo
:E0_0007: E( 0)=   -1.6410   E(BOTTOM)=   -2.419   E(TOP)=   -0.863
             LOCAL ORBITAL
:E1_0007: E( 1)=   -0.7260   E(BOTTOM)=   -0.726   E(TOP)= -200.000
             APW+lo
:E1_0007: E( 1)=    1.5759
             LOCAL ORBITAL
:E3_0007: E( 3)=    1.5759   E(BOTTOM)=    1.321   E(TOP)= -200.000
             APW+lo
:E2_0007: E( 2)=    1.5759   E(BOTTOM)=    1.471   E(TOP)= -200.000
             APW+lo

          ATOMIC SPHERE DEPENDENT PARAMETERS FOR ATOM  Pu  0+    
:e__0008: OVERALL ENERGY PARAMETER IS    1.5759
          OVERALL BASIS SET ON ATOM IS LAPW
:E0_0008: E( 0)=    1.5759
             APW+lo
:E0_0008: E( 0)=   -1.6310   E(BOTTOM)=   -2.404   E(TOP)=   -0.858
             LOCAL ORBITAL
:E1_0008: E( 1)=   -0.7080   E(BOTTOM)=   -0.708   E(TOP)= -200.000
             APW+lo
:E1_0008: E( 1)=    1.5759
             LOCAL ORBITAL
:E3_0008: E( 3)=    1.5759   E(BOTTOM)=    1.331   E(TOP)= -200.000
             APW+lo
:E2_0008: E( 2)=    1.5759   E(BOTTOM)=    1.496   E(TOP)= -200.000
             APW+lo

       K=   0.00000   0.00000   0.00000            1
:RKM  : MATRIX SIZE 2131LOs: 320  RKM= 8.50  WEIGHT= 1.00  PGR:    
       EIGENVALUES ARE:
[...]

                      QXX         QXY         QYY         QZZ       UP TO R

:VZZ004:            -1.96955    16.63577    -0.79434     2.76389       2.150

:CHA005: TOTAL CHARGE INSIDE SPHERE   5 =    11.968818
:PCS005: PARTIAL CHARGES SPHERE =  5 S,P,D,F,PX,PY,PZ,D-Z2,D-X2Y2,D-XY,D-XZ,D-YZ 
:QTL005: 1.9488 4.5858 0.8395 4.5803 2.5104 2.6906 2.6132 0.1818 0.1735 0.1745 0.1639 0.1955
        Q-s-low E-s-low   Q-p-low E-p-low   Q-d-low E-d-low   Q-f-low E-f-low
:EPL005:  1.8864 -1.5666    4.4330  0.3260    0.0690  0.4311    0.0368  0.4698
        Q-s-hi  E-s-hi    Q-p-hi  E-p-hi    Q-d-hi  E-d-hi    Q-f-hi  E-f-hi 
:EPH005:  0.0624  1.5989    0.1528  1.6334    0.7706  1.6079    4.5436  1.7164

                      QXX         QXY         QYY         QZZ       UP TO R

:VZZ005:           -34.06187     0.39412    21.29302    12.76885       2.150

:CHA006: TOTAL CHARGE INSIDE SPHERE   6 =    11.936842
:PCS006: PARTIAL CHARGES SPHERE =  6 S,P,D,F,PX,PY,PZ,D-Z2,D-X2Y2,D-XY,D-XZ,D-YZ 
:QTL006: 1.9512 4.5733 0.8152 4.5841 2.5940 2.6112 2.5897 0.1711 0.1636 0.1786 0.1719 0.1767
        Q-s-low E-s-low   Q-p-low E-p-low   Q-d-low E-d-low   Q-f-low E-f-low
:EPL006:  1.8852 -1.5679    4.4382  0.3279    0.0645  0.4410    0.0338  0.4849
        Q-s-hi  E-s-hi    Q-p-hi  E-p-hi    Q-d-hi  E-d-hi    Q-f-hi  E-f-hi 
:EPH006:  0.0660  1.5874    0.1351  1.6316    0.7508  1.6093    4.5503  1.7148

                      QXX         QXY         QYY         QZZ       UP TO R

:VZZ006:           -14.05700    -7.73332    -0.83119    14.88819       2.150

:CHA007: TOTAL CHARGE INSIDE SPHERE   7 =    12.018617
:PCS007: PARTIAL CHARGES SPHERE =  7 S,P,D,F,PX,PY,PZ,D-Z2,D-X2Y2,D-XY,D-XZ,D-YZ 
:QTL007: 1.9461 4.5823 0.8564 4.6170 2.6936 2.5068 2.5946 0.1865 0.1724 0.1839 0.2026 0.1674
        Q-s-low E-s-low   Q-p-low E-p-low   Q-d-low E-d-low   Q-f-low E-f-low
:EPL007:  1.8886 -1.5627    4.4340  0.3251    0.0795  0.4257    0.0432  0.4598
        Q-s-hi  E-s-hi    Q-p-hi  E-p-hi    Q-d-hi  E-d-hi    Q-f-hi  E-f-hi 
:EPH007:  0.0575  1.5939    0.1483  1.6268    0.7769  1.6063    4.5738  1.7097

                      QXX         QXY         QYY         QZZ       UP TO R

:VZZ007:            -0.38658    12.88917   -11.80225    12.18883       2.150

:CHA008: TOTAL CHARGE INSIDE SPHERE   8 =    11.788847
:PCS008: PARTIAL CHARGES SPHERE =  8 S,P,D,F,PX,PY,PZ,D-Z2,D-X2Y2,D-XY,D-XZ,D-YZ 
:QTL008: 1.9532 4.6131 0.7028 4.5114 2.5540 2.6457 2.6378 0.1627 0.1338 0.1373 0.1373 0.1628
        Q-s-low E-s-low   Q-p-low E-p-low   Q-d-low E-d-low   Q-f-low E-f-low
:EPL008:  1.8808 -1.5722    4.4351  0.3342    0.0391  0.4538    0.0200  0.4862
        Q-s-hi  E-s-hi    Q-p-hi  E-p-hi    Q-d-hi  E-d-hi    Q-f-hi  E-f-hi 
:EPH008:  0.0723  1.5845    0.1780  1.6250    0.6637  1.6082    4.4914  1.7078

                      QXX         QXY         QYY         QZZ       UP TO R

:VZZ008:           -44.03138     9.42405    32.79058    11.24079       2.150

:CHA  : TOTAL CHARGE INSIDE UNIT CELL =     256.000000

:ESUM  : SUM OF EIGENVALUES =         196.635097556


------- alpha_Pu_0.scfc --------

        1.ATOM      Pu  0+               21 CORE STATES
       CORE-FORCE in mRy/a.u. = |F|      Fx             Fy             Fz
:FCO001:   1.ATOM       3059.369      -3005.982       -569.041          0.000

:1S 001: 1S               -8965.949641526 Ry
:2S 001: 2S               -1686.622737448 Ry
:2PP001: 2P*              -1627.315836727 Ry
:2P 001: 2P               -1314.164892383 Ry
:3S 001: 3S                -427.169221595 Ry
:3PP001: 3P*               -400.244555710 Ry
:3P 001: 3P                -327.683570571 Ry
:3DD001: 3D*               -285.442835646 Ry
:3D 001: 3D                -270.900804263 Ry
:4S 001: 4S                -108.649514217 Ry
:4PP001: 4P*                -96.461663778 Ry
:4P 001: 4P                 -77.316086437 Ry
:4DD001: 4D*                -58.028663963 Ry
:4D 001: 4D                 -54.534040975 Ry
:5S 001: 5S                 -22.803368181 Ry
:5PP001: 5P*                -17.985233236 Ry
:5P 001: 5P                 -13.295526046 Ry
:4FF001: 4F*                -29.134590826 Ry
:4F 001: 4F                 -28.206486011 Ry
:5DD001: 5D*                 -6.259570255 Ry
:5D 001: 5D                  -5.560425553 Ry

        2.ATOM      Pu  0+               21 CORE STATES
       CORE-FORCE in mRy/a.u. = |F|      Fx             Fy             Fz
:FCO002:   2.ATOM       1798.966        207.484      -1786.960          0.000

:1S 002: 1S               -8965.957316481 Ry
:2S 002: 2S               -1686.631645713 Ry
:2PP002: 2P*              -1627.324599633 Ry
:2P 002: 2P               -1314.173806765 Ry
:3S 002: 3S                -427.177726894 Ry
:3PP002: 3P*               -400.253076765 Ry
:3P 002: 3P                -327.692063397 Ry
:3DD002: 3D*               -285.451480308 Ry
:3D 002: 3D                -270.909425181 Ry
:4S 002: 4S                -108.658023389 Ry
:4PP002: 4P*                -96.470174424 Ry
:4P 002: 4P                 -77.324608522 Ry
:4DD002: 4D*                -58.037211559 Ry
:4D 002: 4D                 -54.542590760 Ry
:5S 002: 5S                 -22.811925612 Ry
:5PP002: 5P*                -17.993757151 Ry
:5P 002: 5P                 -13.303914861 Ry
:4FF002: 4F*                -29.143090979 Ry
:4F 002: 4F                 -28.214987936 Ry
:5DD002: 5D*                 -6.267594181 Ry
:5D 002: 5D                  -5.568300322 Ry

        3.ATOM      Pu  0+               21 CORE STATES
       CORE-FORCE in mRy/a.u. = |F|      Fx             Fy             Fz
:FCO003:   3.ATOM       6108.431      -4804.020      -3772.839          0.000

:1S 003: 1S               -8965.951253307 Ry
:2S 003: 2S               -1686.625095748 Ry
:2PP003: 2P*              -1627.318153282 Ry
:2P 003: 2P               -1314.167260249 Ry
:3S 003: 3S                -427.170852981 Ry
:3PP003: 3P*               -400.246223226 Ry
:3P 003: 3P                -327.685191354 Ry
:3DD003: 3D*               -285.444613973 Ry
:3D 003: 3D                -270.902549100 Ry
:4S 003: 4S                -108.651316237 Ry
:4PP003: 4P*                -96.463467424 Ry
:4P 003: 4P                 -77.317941452 Ry
:4DD003: 4D*                -58.030534362 Ry
:4D 003: 4D                 -54.535923812 Ry
:5S 003: 5S                 -22.805576681 Ry
:5PP003: 5P*                -17.987470687 Ry
:5P 003: 5P                 -13.297851213 Ry
:4FF003: 4F*                -29.136374594 Ry
:4F 003: 4F                 -28.208277829 Ry
:5DD003: 5D*                 -6.261861174 Ry
:5D 003: 5D                  -5.562683028 Ry

        4.ATOM      Pu  0+               21 CORE STATES
       CORE-FORCE in mRy/a.u. = |F|      Fx             Fy             Fz
:FCO004:   4.ATOM       3538.812       3508.822        459.734          0.000

:1S 004: 1S               -8965.953880812 Ry
:2S 004: 2S               -1686.628452055 Ry
:2PP004: 2P*              -1627.321377047 Ry
:2P 004: 2P               -1314.170616232 Ry
:3S 004: 3S                -427.174530728 Ry
:3PP004: 3P*               -400.249876902 Ry
:3P 004: 3P                -327.688873834 Ry
:3DD004: 3D*               -285.448299087 Ry
:3D 004: 3D                -270.906244264 Ry
:4S 004: 4S                -108.654975582 Ry
:4PP004: 4P*                -96.467125183 Ry
:4P 004: 4P                 -77.321596255 Ry
:4DD004: 4D*                -58.034199805 Ry
:4D 004: 4D                 -54.539589882 Ry
:5S 004: 5S                 -22.809265962 Ry
:5PP004: 5P*                -17.991137496 Ry
:5P 004: 5P                 -13.301431750 Ry
:4FF004: 4F*                -29.140069592 Ry
:4F 004: 4F                 -28.211972077 Ry
:5DD004: 5D*                 -6.265283885 Ry
:5D 004: 5D                  -5.566047508 Ry

        5.ATOM      Pu  0+               21 CORE STATES
       CORE-FORCE in mRy/a.u. = |F|      Fx             Fy             Fz
:FCO005:   5.ATOM       2086.261       -983.083      -1840.117          0.000

:1S 005: 1S               -8965.956336025 Ry
:2S 005: 2S               -1686.631142851 Ry
:2PP005: 2P*              -1627.323998374 Ry
:2P 005: 2P               -1314.173305106 Ry
:3S 005: 3S                -427.177639806 Ry
:3PP005: 3P*               -400.252961482 Ry
:3P 005: 3P                -327.691986282 Ry
:3DD005: 3D*               -285.451369429 Ry
:3D 005: 3D                -270.909330165 Ry
:4S 005: 4S                -108.657949483 Ry
:4PP005: 4P*                -96.470098481 Ry
:4P 005: 4P                 -77.324534058 Ry
:4DD005: 4D*                -58.037141725 Ry
:4D 005: 4D                 -54.542523165 Ry
:5S 005: 5S                 -22.811931038 Ry
:5PP005: 5P*                -17.993743529 Ry
:5P 005: 5P                 -13.303832210 Ry
:4FF005: 4F*                -29.143060125 Ry
:4F 005: 4F                 -28.214957018 Ry
:5DD005: 5D*                 -6.267367263 Ry
:5D 005: 5D                  -5.568021847 Ry

        6.ATOM      Pu  0+               21 CORE STATES
       CORE-FORCE in mRy/a.u. = |F|      Fx             Fy             Fz
:FCO006:   6.ATOM       5614.325      -4524.624      -3323.917          0.000

:1S 006: 1S               -8965.956200640 Ry
:2S 006: 2S               -1686.630382869 Ry
:2PP006: 2P*              -1627.323421988 Ry
:2P 006: 2P               -1314.172556283 Ry
:3S 006: 3S                -427.175897320 Ry
:3PP006: 3P*               -400.251282117 Ry
:3P 006: 3P                -327.690228207 Ry
:3DD006: 3D*               -285.449713701 Ry
:3D 006: 3D                -270.907636013 Ry
:4S 006: 4S                -108.656308088 Ry
:4PP006: 4P*                -96.468461322 Ry
:4P 006: 4P                 -77.322927505 Ry
:4DD006: 4D*                -58.035529678 Ry
:4D 006: 4D                 -54.540916073 Ry
:5S 006: 5S                 -22.810445526 Ry
:5PP006: 5P*                -17.992312876 Ry
:5P 006: 5P                 -13.302583802 Ry
:4FF006: 4F*                -29.141347221 Ry
:4F 006: 4F                 -28.213249391 Ry
:5DD006: 5D*                 -6.266356068 Ry
:5D 006: 5D                  -5.567085337 Ry

        7.ATOM      Pu  0+               21 CORE STATES
       CORE-FORCE in mRy/a.u. = |F|      Fx             Fy             Fz
:FCO007:   7.ATOM       5690.529       3839.514      -4200.030          0.000

:1S 007: 1S               -8965.951176964 Ry
:2S 007: 2S               -1686.625421645 Ry
:2PP007: 2P*              -1627.318384379 Ry
:2P 007: 2P               -1314.167581993 Ry
:3S 007: 3S                -427.171564410 Ry
:3PP007: 3P*               -400.246908119 Ry
:3P 007: 3P                -327.685910086 Ry
:3DD007: 3D*               -285.445301883 Ry
:3D 007: 3D                -270.903251685 Ry
:4S 007: 4S                -108.652025619 Ry
:4PP007: 4P*                -96.464174703 Ry
:4P 007: 4P                 -77.318647031 Ry
:4DD007: 4D*                -58.031244008 Ry
:4D 007: 4D                 -54.536634608 Ry
:5S 007: 5S                 -22.806341019 Ry
:5PP007: 5P*                -17.988223866 Ry
:5P 007: 5P                 -13.298568950 Ry
:4FF007: 4F*                -29.137121064 Ry
:4F 007: 4F                 -28.209023766 Ry
:5DD007: 5D*                 -6.262529092 Ry
:5D 007: 5D                  -5.563335281 Ry

        8.ATOM      Pu  0+               21 CORE STATES
       CORE-FORCE in mRy/a.u. = |F|      Fx             Fy             Fz
:FCO008:   8.ATOM       1465.066      -1331.373       -611.445          0.000

:1S 008: 1S               -8965.953522576 Ry
:2S 008: 2S               -1686.629029764 Ry
:2PP008: 2P*              -1627.321913071 Ry
:2P 008: 2P               -1314.171199360 Ry
:3S 008: 3S                -427.173918981 Ry
:3PP008: 3P*               -400.249320569 Ry
:3P 008: 3P                -327.688252267 Ry
:3DD008: 3D*               -285.447907595 Ry
:3D 008: 3D                -270.905801528 Ry
:4S 008: 4S                -108.654828682 Ry
:4PP008: 4P*                -96.466978687 Ry
:4P 008: 4P                 -77.321574764 Ry
:4DD008: 4D*                -58.034195145 Ry
:4D 008: 4D                 -54.539617616 Ry
:5S 008: 5S                 -22.810213126 Ry
:5PP008: 5P*                -17.992184059 Ry
:5P 008: 5P                 -13.302789994 Ry
:4FF008: 4F*                -29.139914941 Ry
:4F 008: 4F                 -28.211836961 Ry
:5DD008: 5D*                 -6.266811640 Ry
:5D 008: 5D                  -5.567601219 Ry

------- alpha_Pu_0.scfm --------

       DENSITY AT NUCLEUS
        JATOM    VALENCE       SEMI-CORE            CORE           TOTAL
:RTO001:   1    23240.848062        0.000000 45141824.994641 45165065.842703
:RTO002:   2    23394.263720        0.000000 45141821.860912 45165216.124632
:RTO003:   3    23386.237259        0.000000 45141820.730562 45165206.967820
:RTO004:   4    23446.696303        0.000000 45141817.714544 45165264.410847
:RTO005:   5    23451.180519        0.000000 45141819.088465 45165270.268983
:RTO006:   6    23497.427567        0.000000 45141821.121383 45165318.548950
:RTO007:   7    23383.770072        0.000000 45141818.457288 45165202.227360
:RTO008:   8    23562.005132        0.000000 45141808.741133 45165370.746266
     
       CHARGES OF NEW CHARGE DENSITY
:NTO  : TOTAL   INTERSTITIAL CHARGE=   64.3355019
:NTO001: TOTAL   CHARGE IN SPHERE  1 =       90.1349217
:NTO002: TOTAL   CHARGE IN SPHERE  2 =       89.9747011
:NTO003: TOTAL   CHARGE IN SPHERE  3 =       90.0011069
:NTO004: TOTAL   CHARGE IN SPHERE  4 =       89.9702227
:NTO005: TOTAL   CHARGE IN SPHERE  5 =       89.9593778
:NTO006: TOTAL   CHARGE IN SPHERE  6 =       89.9274079
:NTO007: TOTAL   CHARGE IN SPHERE  7 =       90.0091259
:NTO008: TOTAL   CHARGE IN SPHERE  8 =       89.7794818

:NEC01: NUCLEAR AND ELECTRONIC CHARGE   1504.00000  1503.84819     1.00010
     
       CHARGES OF OLD CHARGE DENSITY
:OTO  : TOTAL   INTERSTITIAL CHARGE=   64.4888177
:OTO001: TOTAL   CHARGE IN SPHERE  1 =       90.1346428
:OTO002: TOTAL   CHARGE IN SPHERE  2 =       89.9746683
:OTO003: TOTAL   CHARGE IN SPHERE  3 =       90.0009769
:OTO004: TOTAL   CHARGE IN SPHERE  4 =       89.9700732
:OTO005: TOTAL   CHARGE IN SPHERE  5 =       89.9592963
:OTO006: TOTAL   CHARGE IN SPHERE  6 =       89.9273027
:OTO007: TOTAL   CHARGE IN SPHERE  7 =       90.0090365
:OTO008: TOTAL   CHARGE IN SPHERE  8 =       89.7795945

:NEC02: NUCLEAR AND ELECTRONIC CHARGE   1504.00000  1504.00000     1.00000
     
       CONVERGENCE TEST
:DTO001: TOTAL   DIFFERENCE CHARGE**2 IN SPHERE  1 =  0.0002539
:DTO002: TOTAL   DIFFERENCE CHARGE**2 IN SPHERE  2 =  0.0000700
:DTO003: TOTAL   DIFFERENCE CHARGE**2 IN SPHERE  3 =  0.0001161
:DTO004: TOTAL   DIFFERENCE CHARGE**2 IN SPHERE  4 =  0.0001412
:DTO005: TOTAL   DIFFERENCE CHARGE**2 IN SPHERE  5 =  0.0000958
:DTO006: TOTAL   DIFFERENCE CHARGE**2 IN SPHERE  6 =  0.0001172
:DTO007: TOTAL   DIFFERENCE CHARGE**2 IN SPHERE  7 =  0.0001181
:DTO008: TOTAL   DIFFERENCE CHARGE**2 IN SPHERE  8 =  0.0001113

:DIS  :  CHARGE DISTANCE       ( 0.0002539 for atom    1 spin 1)      0.0001279
:BIG check (qbig,qrms,qtot)    0.846D-04   0.975D-04   0.128D-03
 
******************************************************
* MULTISECANT MIXING VER4 OPTIONS                    *
* Unpredicted Step Limit   0.100000                  *
* Plane Wave Dynamic Rescaling                       *
* Dynamic Regularization active                      *
* Upper Cutoff Lambda  1.0E-01 Lower 3.5E-04         *
* SQRT Multiplicity/Degeneracy                       *
* Max Number of Memory Steps    8                    *
******************************************************
 
:PLANE:  INTERSTITIAL TOTAL      7.81997 DISTAN  1.056E-03 % 
:CHARG:  CLM CHARGE   /ATOM    356.61737 DISTAN  4.447E-05 % 
:INFO :  Dynamic rescale   1.491E+01  1.000E-01
:INFO :  Number of Memory Steps    8 Skipping   12
:INFO :  Singular value   4.852E+00 Weight   9.989E-01 Projections  -4.142E-04  6.209E-04
:INFO :  Singular value   4.198E+00 Weight   9.985E-01 Projections  -4.223E-04  1.443E-04
:INFO :  Singular value   2.095E+00 Weight   9.939E-01 Projections   2.985E-04 -2.798E-04
:INFO :  Singular value   3.758E-01 Weight   8.403E-01 Projections   3.455E-04 -7.020E-04
:INFO :  Singular value   1.924E-01 Weight   5.796E-01 Projections   6.299E-04  3.951E-04
:INFO :  Singular value   9.515E-02 Weight   2.522E-01 Projections  -2.458E-04  3.257E-04
:INFO :  Singular value   2.199E-02 Weight   1.770E-02 Projections  -4.258E-04  7.699E-05
:INFO :  Singular value   1.178E-02 Weight   5.139E-03 Projections   2.212E-04 -2.032E-05
:INFO :  Bounds         0.967D-01  0.200D+00  0.172D+00  0.967D-01
:DIRM :  MEMORY 8/8 RESCALE  14.91 RED 1.132 PRED 0.913 NEXT 0.580 COND 6.05E-01
:DIRP :  |BROYD|= 6.253E-04 |PRATT|= 1.191E-04 ANGLE=  69.6 DEGREES
:DIRB :  |BROYD|= 7.731E-04 |PRATT|= 1.710E-04 ANGLE=  56.1 DEGREES
:MIX  :  MSR1   REGULARIZATION: 1.64E-01  GREED: 0.097
     
       CHARGES OF MIXED CHARGE DENSITY
:CTO  : TOTAL   INTERSTITIAL CHARGE=   64.4882099
:CTO001: TOTAL   CHARGE IN SPHERE  1 =       90.1347184
:CTO002: TOTAL   CHARGE IN SPHERE  2 =       89.9747001
:CTO003: TOTAL   CHARGE IN SPHERE  3 =       90.0010203
:CTO004: TOTAL   CHARGE IN SPHERE  4 =       89.9701145
:CTO005: TOTAL   CHARGE IN SPHERE  5 =       89.9593322
:CTO006: TOTAL   CHARGE IN SPHERE  6 =       89.9273379
:CTO007: TOTAL   CHARGE IN SPHERE  7 =       90.0090752
:CTO008: TOTAL   CHARGE IN SPHERE  8 =       89.7795967

:NEC03: NUCLEAR AND ELECTRONIC CHARGE   1504.00000  1504.00000     1.00000


:ENE  : ********** TOTAL ENERGY IN Ry =      -949675.25428114

       TOTAL FORCE IN mRy/a.u. = |F|     Fx             Fy             Fz     with/without FOR in case.in2
:FOR001:   1.ATOM        140.748        137.063        -31.997          0.000 partial forces
:FOR002:   2.ATOM        101.410       -101.185          6.758          0.000 partial forces
:FOR003:   3.ATOM         61.126         60.269         10.198          0.000 partial forces
:FOR004:   4.ATOM         83.298        -72.633        -40.780          0.000 partial forces
:FOR005:   5.ATOM         38.119         34.047        -17.143          0.000 partial forces
:FOR006:   6.ATOM         41.235         39.668        -11.258          0.000 partial forces
:FOR007:   7.ATOM        226.358       -213.021        -76.550          0.000 partial forces
:FOR008:   8.ATOM         64.427         35.726         53.614          0.000 partial forces

       TOTAL FORCE WITH RESPECT TO GLOBAL CARTESIAN COORDINATES:
:FCA001:   1.ATOM                       -31.997          0.000        137.063 partial forces
:FCA002:   2.ATOM                         6.758          0.000       -101.185 partial forces
:FCA003:   3.ATOM                        10.198          0.000         60.269 partial forces
:FCA004:   4.ATOM                       -40.780          0.000        -72.633 partial forces
:FCA005:   5.ATOM                       -17.143          0.000         34.047 partial forces
:FCA006:   6.ATOM                       -11.258          0.000         39.668 partial forces
:FCA007:   7.ATOM                       -76.550          0.000       -213.021 partial forces
:FCA008:   8.ATOM                        53.614          0.000         35.726 partial forces

       TOTAL FORCE WITH RESPECT TO THE GLOBAL COORDINATE SYSTEM:
:FGL001:   1.ATOM               -32.686229609     0.000000000   130.386054812 partial forces
:FGL002:   2.ATOM                 6.903570325     0.000000000   -99.774780430 partial forces
:FGL003:   3.ATOM                10.417669455     0.000000000    62.397058475 partial forces
:FGL004:   4.ATOM               -41.658419334     0.000000000   -81.142729810 partial forces
:FGL005:   5.ATOM               -17.512267843     0.000000000    30.469699898 partial forces
:FGL006:   6.ATOM               -11.500502326     0.000000000    37.318746979 partial forces
:FGL007:   7.ATOM               -78.198921041     0.000000000  -228.995002378 partial forces
:FGL008:   8.ATOM                54.768869402     0.000000000    46.913853214 partial forces
