
------- case.scf0 --------
 Flat Integration
 New Mode for Coulomb Integral
 Consistent 3/8+Simpson combinations
 Extension of core to zero
 LDM version in phi
 Fifth-order quadrature in outwin


            ---------
:ITE046: 46. ITERATION
            ---------

:NATO :    1 INDEPENDENT AND    2 TOTAL ATOMS IN UNITCELL
       SUBSTANCE: aU                                                          

       LATTICE                      = CXY 
:POT  : POTENTIAL OPTION EX_LDA EC_LDA VX_LDA VC_LDA
:LAT  : LATTICE CONSTANTS=  6.26593 12.71516 10.97726    1.571    1.571    1.571
:VOL  : UNIT CELL VOLUME =     437.29197
       MODE OF CALCULATION IS       = RELA
       NON-SPINPOLARIZED CALCULATION
:IFFT  : FFT-parameters:   48  100   90 Factor: 2.00


   CONVERGENCE PARAMETER FOR PSEUDOCHARGE: NCON=  9
   MAXIMAL VALUE OF RMT(JATOM)*ABSK(NKK) : RK  =27.59083


:VKCOUL :  VK-COUL convergence: 0.739E-07
       ATOMNUMBER=  1 Pr1        VCOUL-ZERO =  0.15137E+00
:EFG001:                        EFG         =    -8.38399   *10**21  V / m**2
                               V20  TOT/SRF=    -7.26075    -0.03551
                               V22  TOT/SRF=     0.25940     0.00215
                               V22M TOT/SRF=     0.00000     0.00000
                               V21  TOT/SRF=     0.00000     0.00000
                               V21M TOT/SRF=     0.00000     0.00000

              4.45139    0.00000    0.00000        4.45139    0.00000    0.00000
              0.00000    3.93260    0.00000        0.00000    3.93260    0.00000
              0.00000    0.00000   -8.38399        0.00000    0.00000   -8.38399

         MAIN DIRECTIONS OF THE EFG   1.0000  0.0000  0.0000
                                      0.0000  1.0000  0.0000
                                      0.0000  0.0000  1.0000
:ANG001:  ANGLE WITH OLD X-AXIS =         0.0

:ETA001:                         ASYMM. ETA =     0.06188


     HELLMANN-FEYNMAN-FORCE IN mRy/a.u. = |F|  Fx       Fy             Fz
:FHF001:   1.ATOM    679.493482297362      0.000000000000      0.000000000000   -679.493482297362

:FIT001: LUSE= 13 SIGMA OF V-XC FIT FOR ATOM  1  0.9235203E-05
:FIT001: LUSE= 13 SIGMA OF V-XC FIT FOR ATOM  1  0.9235203E-05
:DEN  : DENSITY INTEGRAL  =        -14158.87312098   (Ry)
       ELS_POTENTIAL_AT Z=0 and Z=0.5:   0.76112   0.76112
       ELS_POTENTIAL_AT Y=0 and Y=0.5:   0.05758   0.05758
:VZERO:v0,v0c,v0x   0.16130   0.76112  -0.59982 v5,v5c,v5x   0.16130   0.76112  -0.59982
:VZERY:v0,v0c,v0x  -0.74379   0.05758  -0.80138 v5,v5c,v5x  -0.74379   0.05758  -0.80138
:VZERX:v0,v0c,v0x  -1.14744  -0.38343  -0.76401 v5,v5c,v5x  -1.14744  -0.38343  -0.76401

------- case.scf1 --------
:LMAX-WF:   10   Non-Spherical LMAX:   4

          ATOMIC SPHERE DEPENDENT PARAMETERS FOR ATOM  Pr1       
:e__0001: OVERALL ENERGY PARAMETER IS    0.4988
          OVERALL BASIS SET ON ATOM IS LAPW
:E0_0001: E( 0)=    0.4988
             APW+lo
:E0_0001: E( 0)=   -1.9550   E(BOTTOM)=   -2.591   E(TOP)=   -1.319  4  5   186
             LOCAL ORBITAL
:E1_0001: E( 1)=    0.8988
             APW+lo
:E1_0001: E( 1)=   -0.4854   E(BOTTOM)=   -1.444   E(TOP)=    0.473  3  4   194
             LOCAL ORBITAL
:E3_0001: E( 3)=    0.6991   E(BOTTOM)=    0.491   E(TOP)=    0.907  0  1   123
             APW+lo
:E2_0001: E( 2)=    0.4988   E(BOTTOM)=    0.296   E(TOP)= -200.000  2 -1    89
             APW+lo

       K=   0.06250   0.00000   0.06250            1
:RKM  : MATRIX SIZE   421LOs:  40  RKM= 8.50  WEIGHT= 4.00  PGR:    
       EIGENVALUES ARE:
:EIG00001:      -1.9326437   -1.9128950   -0.6730599   -0.5752274   -0.5535256
:EIG00006:      -0.5463800   -0.5376906   -0.5372633    0.4711544    0.5973741
:EIG00011:       0.6980507    0.7018898    0.7022084    0.7060879    0.7107586
:EIG00016:       0.7243577    0.7293475    0.7302680    0.7332618    0.7366928
:EIG00021:       0.7412208    0.7439975    0.7457018    0.7517003    0.7762702
:EIG00026:       0.7903665    0.8763682    0.8869197    0.9270726    0.9531494
:EIG00031:       0.9690023    1.0703735    1.1140572    1.1653186    1.4684135
:EIG00036:       1.4899696    1.5545039    1.5688144    1.7309738    1.7843859
:EIG00041:       1.8739751    1.9726828    2.0654164    2.0796161    2.1988219
:EIG00046:       2.2331069    2.2491618    2.3387564    2.3798495    2.4891910
 
:EIG00051:       2.5394327    2.5945520    2.6160602    2.7041763    2.7427145
:EIG00056:       2.8097565    2.8279067    2.8924804    2.9712503    3.0474299
:EIG00061:       3.0974836    3.1334118    3.2668402    3.3078239    3.3400638
:EIG00066:       3.4524481    3.5014276    3.5634275    3.5744394    3.6005266
:EIG00071:       3.6094042    3.6640022    3.7018827    3.7818919    3.7973554
:EIG00076:       3.8440767    3.8571160    3.9099243    3.9369700    3.9703846
:EIG00081:       3.9712981    4.0234709    4.0378319    4.1263349    4.1553477
:EIG00086:       4.1566742    4.2584560    4.2859966    4.3198948    4.3285799
:EIG00091:       4.3636680    4.4151444    4.4210588    4.4546930    4.4686135
:EIG00096:       4.5011314    4.5503213    4.5635266    4.5860558    4.6555482
 
:EIG00101:       4.7412401    4.8615765    4.8830298    4.9627552    4.9776240
:EIG00106:       4.9837427    5.0426801    5.0830060    5.1027591    5.1311050
:EIG00111:       5.2227138    5.2691285    5.3080283    5.3755749    5.4132951
:EIG00116:       5.4651654    5.4851079    5.5082205    5.5618857    5.6051261
:EIG00121:       5.6239781    5.6696395    5.7464702    5.7520937    5.8150134
:EIG00126:       5.9013803    5.9587225    5.9692560    5.9860602    6.0531776
:EIG00131:       6.0755616    6.1337966    6.1464554    6.1472295    6.1998670
:EIG00136:       6.2886806    6.2906910    6.3507979    6.3627461    6.3946630
:EIG00141:       6.4217001    6.4555754    6.4919787    6.5009499    6.5714212
:EIG00146:       6.5824277    6.5975322    6.6500446    6.6692423    6.7123405
 
:EIG00151:       6.7671206    6.7905876    6.8502478    6.9048167    6.9813687
:EIG00156:       7.0609653    7.1526493    7.1611063    7.1859508    7.2754728
:EIG00161:       7.3323571    7.3898311    7.4000693    7.4418746    7.4487392
:EIG00166:       7.4923721    7.5047629    7.5058185    7.5789296    7.6585092
:EIG00171:       7.6612731    7.7035014    7.7407321    7.7578281    7.8253136
:EIG00176:       7.8384684    7.8826666    7.8856945    7.9443193    7.9655654
:EIG00181:       7.9982899    8.0178974    8.0197988    8.0907160    8.0999997
:EIG00186:       8.1137914
       ********************************************************

:KPT   :      NUMBER OF K-POINTS:   288

------- case.scfso --------
   0.0   0.0 angle (M,z), angle (M,x) deg
 
        SPIN-ORBIT EIGENVALUES:
     K=   0.06250   0.00000   0.06250            1
      MATRIX SIZE=  372   WEIGHT= 4.00
     EIGENVALUES ARE:
          -1.9326441   -1.9326441   -1.9128951   -1.9128951   -0.7500485
          -0.7500485   -0.6949731   -0.6949731   -0.5617633   -0.5617633
          -0.4844761   -0.4844761   -0.4809744   -0.4809744   -0.4710644
          -0.4710644    0.4712042    0.4712042    0.5972581    0.5972581
           0.6933390    0.6933390    0.6978260    0.6978260    0.6989882
           0.6989882    0.7013932    0.7013932    0.7059671    0.7059671
           0.7127075    0.7127075    0.7265951    0.7265951    0.7351391
           0.7351391    0.7387003    0.7387003    0.7409834    0.7409834

           0.7439820    0.7439820    0.7487937    0.7487937    0.7508898
           0.7508898    0.7567725    0.7567725    0.7776818    0.7776818
           0.7906343    0.7906343    0.8744443    0.8744443    0.8885547
           0.8885547    0.9273525    0.9273525    0.9535266    0.9535266
           0.9691481    0.9691481    1.0702462    1.0702462    1.1143291
           1.1143291    1.1654413    1.1654413    1.4685742    1.4685742
           1.4900603    1.4900603    1.5544569    1.5544569    1.5688925
           1.5688925    1.7306315    1.7306315    1.7838780    1.7838780

           1.8739711    1.8739711    1.9715518    1.9715518    2.0634958
           2.0634958    2.0809782    2.0809782    2.1991615    2.1991615
           2.2329628    2.2329628    2.2478135    2.2478135    2.3382490
           2.3382490    2.3809163    2.3809163    2.4890011    2.4890011
           2.5388234    2.5388234    2.5921477    2.5921477    2.6175899
           2.6175899    2.7041765    2.7041765    2.7439717    2.7439717
           2.8098736    2.8098736    2.8273862    2.8273862    2.8931329
           2.8931329    2.9717729    2.9717729    3.0472662    3.0472662

           3.0974308    3.0974308    3.1377482    3.1377482    3.2667157
           3.2667157    3.3078665    3.3078665    3.3402831    3.3402831
           3.4524823    3.4524823    3.5015076    3.5015076    3.5636216
           3.5636216    3.5739364    3.5739364    3.6007039    3.6007039
           3.6096761    3.6096761    3.6639225    3.6639225    3.7019517
           3.7019517    3.7809332    3.7809332    3.7984510    3.7984510
           3.8442139    3.8442139    3.8590221    3.8590221    3.9100207
           3.9100207    3.9373278    3.9373278    3.9704374    3.9704374

           3.9716169    3.9716169    4.0235093    4.0235093    4.0382810
           4.0382810    4.1263395    4.1263395    4.1552135    4.1552135
           4.1571656    4.1571656    4.2584523    4.2584523    4.2861542
           4.2861542    4.3199146    4.3199146    4.3286581    4.3286581
           4.3637045    4.3637045    4.4151487    4.4151487    4.4211424
           4.4211424    4.4546378    4.4546378    4.4685607    4.4685607

       ********************************************************

------- case.scf2 --------
:GMA  : POTENTIAL AND CHARGE CUT-OFF  12.00 Ry**.5




:POS001: at.nr.  -1 position = 0.00000 0.89750 0.25000  multiplicity =  2

       lmmax 16
       lm=   0 0  1 0  2 0  2 2  3 0  3 2  4 0  4 2  4 4  5 0  5 2  5 4  6 0  6 2  6 4  6 6
:FER gutzwiller fermi energy   0.71786
:EORB         -0.140374672
:SUM sum of gutz band energies         -8.091255154

:CHA001: total charge inside sphere   1 =     9.551588
:PCS001: partial charges sphere =  1 s,p,d,f,px,py,pz,d-z2,d-x2y2,d-xy,d-xz,d-yz 
:QTL001: 1.9452 5.0141 0.6155 1.9763 1.6683 1.6687 1.6771 0.1157 0.1139 0.1312 0.1213 0.1333

                      vxx         vyy         vzz       up to r

:VZZ001:             4.43008     3.91560    -8.34568       2.300

:CHA  : total charge inside unit cell =      12.999996

------- case.scfc --------

        1.ATOM      Pr1                  14 CORE STATES
       CORE-FORCE in mRy/a.u. = |F|      Fx             Fy             Fz
:FCO001:   1.ATOM    665.098486088116      0.000000000000      0.000000000000    665.098486088116

:1S 001: 1S               -3066.882507979 Ry
:2S 001: 2S                -492.635251270 Ry
:2PP001: 2P*               -465.734330527 Ry
:2P 001: 2P                -430.336857936 Ry
:3S 001: 3S                -105.726802522 Ry
:3PP001: 3P*                -94.264573651 Ry
:3P 001: 3P                 -87.256815638 Ry
:3DD001: 3D*                -67.183563827 Ry
:3D 001: 3D                 -65.672030178 Ry
:4S 001: 4S                 -20.405666340 Ry
:4PP001: 4P*                -16.112473931 Ry
:4P 001: 4P                 -14.585133114 Ry
:4DD001: 4D*                 -7.518066497 Ry
:4D 001: 4D                  -7.248674595 Ry

------- case.scfm --------
:CINT001 Core Integral Atom   1   45.998487

       DENSITY AT NUCLEUS
        JATOM        VALENCE       SEMI-CORE          CORE           TOTAL
:RTO001:   1      650.246777        0.000000   656824.310869   657474.557647
     
       CHARGES OF NEW CHARGE DENSITY
:NTO   : INTERSTITIAL CHARGE =     6.897525
:NPC   : PW Pseudocharge     =    17.073968
:NTO001: CHARGE SPHERE  1    =    55.550076

:NEC01: NUCLEAR AND ELECTRONIC CHARGE    118.00000   117.99768
     
       CHARGES OF OLD CHARGE DENSITY
:OTO   : INTERSTITIAL CHARGE =     6.899449
:OPC   : PW Pseudocharge     =    17.079828
:OTO001: CHARGE SPHERE  1    =    55.550276

:NEC02: NUCLEAR AND ELECTRONIC CHARGE    118.00000   118.00000
     
       CONVERGENCE TEST
:DTO001: DIFFERENCE IN SPHERE  1 =  0.0003240

:DIS  :  CHARGE DISTANCE       ( 0.0003240 for atom    1 spin 1)      0.0003240
 PW Mixed is          455
 
******************************************************
* MULTISECANT MIXING VER9 RELEASE 10.4.0              *
* Standard Mode with controls                        *
* Fixed density scale                                *
* Regularization       1.000E-04                     *
* Trust Upper Limit    5.000E+00                     *
* Max Number of Memory Steps    8                    *
******************************************************
 
:INFO : Forcing a restart
:PWTMP   3.3536E+02  1.9467E+02  4.3729E+02
:PLANE:  PW TOTAL      4.9054 DISTAN   7.03E-05  1.43E-03 %
:CHARG:  CLM/ATOM   1381.9523 DISTAN   5.00E-04  3.62E-05 %
 
Step History
        DMIX         DMIXT        Red     Pred      Trust     Lambda    MagRel    MagAbs     Beta
  1   3.5000E-02   3.5000E-02 -1.00E+00  1.00E+00 -1.00E+01  1.00E+00  3.50E-02  3.50E-02  1.00E+00
:INFO :  Note, Pratt in use
:TRUST:  Step 2.25E-01  Charge 7.50E-02 (e) CTO  2.50E-01 (e) PW  3.50E-01 (e)
:DIRM :  MEMORY  0/ 8 SCALE   1.000
Performing Pseudo Compensation
Final Pseudo Compensation Rescaling     1.00000E+00
:MIX  :   PRATT  REGULARIZATION:  1.00E-04 GREED: 0.15000                  
     
       CHARGES OF MIXED CHARGE DENSITY
:CTO   : INTERSTITIAL CHARGE =     6.899509
:CPC   : PW Pseudocharge     =    17.079735
:CTO001: CHARGE SPHERE  1    =    55.550246

:NEC03: NUCLEAR AND ELECTRONIC CHARGE    118.00000   118.00000

PW CHANGE     H    K    L      Current       Change    Residue
:PTO001:      0    0    0  5.48357746E-02 -7.460E-08  6.686E-07
:PTO003:      0    2    0  1.46890754E-02 -1.554E-07 -5.253E-07
:PTO004:     -1    1    0  7.24292831E-02 -5.924E-07 -1.214E-06
:PTO005:      0    2   -1 -8.42063267E-02  6.897E-07  1.358E-06
:PTO006:      0    0   -2 -4.36430033E-02  3.315E-07  5.254E-07
:PTO007:     -1    1   -1 -9.09758532E-02  7.202E-07  1.018E-06
:PTO008:      0    2   -2 -1.47333929E-02  1.276E-07  1.174E-07
:PTO009:     -1    1   -2 -7.48291528E-02  7.281E-07  9.344E-07
:PTO011:     -1    3    0 -1.20335521E-02  1.152E-07  3.579E-08
:PTO012:     -1    3   -1 -5.36781763E-02  6.333E-07  6.658E-07
:PTO013:      0    4    0 -9.69005876E-03  1.292E-07  1.351E-07
:PTO014:      0    2   -3  2.22004724E-02 -2.912E-07 -2.979E-07

:ENE  : ********** TOTAL ENERGY IN Ry =       -36944.24312906

       TOTAL FORCE IN mRy/a.u. = |F|     Fx             Fy             Fz     with/without FOR in case.in2
:FOR001:   1.ATOM         14.395          0.000          0.000        -14.395 partial forces
       TOTAL FORCE WITH RESPECT TO GLOBAL CARTESIAN COORDINATES:
:FCA001:   1.ATOM                         0.000        -14.395          0.000 partial forces
       TOTAL FORCE WITH RESPECT TO THE GLOBAL COORDINATE SYSTEM:
:FGL001:   1.ATOM                 0.000000000   -14.394996209     0.000000000 partial forces
