
:LABEL1: Calculations in /home/ykent/GWIEN/example/Pr/aU/V10/case
:LABEL2: on didymium-2.cmpgroup.ameslab.gov at Fri Jul 10 14:12:04 CDT 2020
:LABEL3: using WIEN2k_19.1 (Release 25/6/2019) in /home/ykent/opt/src/WIEN2k_19.1
:LABEL4: using the command: run_lapw -so -i 70 -cc 0.0001

:LABEL1: Calculations in /home/ykent/GWIEN/example/Pr/aU/V10/case
:LABEL2: on didymium-2.cmpgroup.ameslab.gov at Fri Jul 10 14:18:54 CDT 2020
:LABEL3: using WIEN2k_19.1 (Release 25/6/2019) in /home/ykent/opt/src/WIEN2k_19.1
:LABEL4: using the command: run_lapw -so -i 70 -cc 0.0001
 Flat Integration
 New Mode for Coulomb Integral
 Consistent 3/8+Simpson combinations
 Extension of core to zero
 LDM version in phi
 Fifth-order quadrature in outwin


            ---------
:ITE016: 16. ITERATION
            ---------

:NATO :    1 INDEPENDENT AND    2 TOTAL ATOMS IN UNITCELL
       SUBSTANCE: aU                                                          

       LATTICE                      = CXY 
:POT  : POTENTIAL OPTION EX_LDA EC_LDA VX_LDA VC_LDA
:LAT  : LATTICE CONSTANTS=  5.85246 11.87613 10.25291    1.571    1.571    1.571
:VOL  : UNIT CELL VOLUME =     356.31200
       MODE OF CALCULATION IS       = RELA
       NON-SPINPOLARIZED CALCULATION
:IFFT  : FFT-parameters:   48   96   80 Factor: 2.00


   CONVERGENCE PARAMETER FOR PSEUDOCHARGE: NCON=  9
   MAXIMAL VALUE OF RMT(JATOM)*ABSK(NKK) : RK  =27.59714


:VKCOUL :  VK-COUL convergence: 0.186E-06
       ATOMNUMBER=  1 Pr1        VCOUL-ZERO =  0.36031E+00
:EFG001:                        EFG         =    -9.68453   *10**21  V / m**2
                               V20  TOT/SRF=    -8.38705    -0.04840
                               V22  TOT/SRF=    -1.96619    -0.00644
                               V22M TOT/SRF=     0.00000     0.00000
                               V21  TOT/SRF=     0.00000     0.00000
                               V21M TOT/SRF=     0.00000     0.00000

              2.87608    0.00000    0.00000        2.87608    0.00000    0.00000
              0.00000    6.80846    0.00000        0.00000    6.80846    0.00000
              0.00000    0.00000   -9.68453        0.00000    0.00000   -9.68453

         MAIN DIRECTIONS OF THE EFG   1.0000  0.0000  0.0000
                                      0.0000  1.0000  0.0000
                                      0.0000  0.0000  1.0000
:ANG001:  ANGLE WITH OLD X-AXIS =         0.0

:ETA001:                         ASYMM. ETA =     0.40605


     HELLMANN-FEYNMAN-FORCE IN mRy/a.u. = |F|  Fx       Fy             Fz
:FHF001:   1.ATOM   1655.516502137798      0.000000000000      0.000000000000  -1655.516502137798

:FIT001: LUSE= 13 SIGMA OF V-XC FIT FOR ATOM  1  0.5853355E-04
:FIT001: LUSE= 13 SIGMA OF V-XC FIT FOR ATOM  1  0.5853355E-04
:DEN  : DENSITY INTEGRAL  =        -14179.53230493   (Ry)
       ELS_POTENTIAL_AT Z=0 and Z=0.5:   0.87196   0.87196
       ELS_POTENTIAL_AT Y=0 and Y=0.5:   0.03554   0.03554
:VZERO:v0,v0c,v0x   0.21063   0.87196  -0.66133 v5,v5c,v5x   0.21063   0.87196  -0.66133
:VZERY:v0,v0c,v0x  -0.84071   0.03554  -0.87625 v5,v5c,v5x  -0.84071   0.03554  -0.87625
:VZERX:v0,v0c,v0x  -1.21939  -0.39190  -0.82749 v5,v5c,v5x  -1.21939  -0.39190  -0.82749
:LMAX-WF:   10   Non-Spherical LMAX:   4

          ATOMIC SPHERE DEPENDENT PARAMETERS FOR ATOM  Pr1       
:e__0001: OVERALL ENERGY PARAMETER IS    0.6871
          OVERALL BASIS SET ON ATOM IS LAPW
:E0_0001: E( 0)=    0.6871
             APW+lo
:E0_0001: E( 0)=   -1.7540   E(BOTTOM)=   -2.389   E(TOP)=   -1.119  4  5   204
             LOCAL ORBITAL
:E1_0001: E( 1)=    1.0871
             APW+lo
:E1_0001: E( 1)=   -0.2836   E(BOTTOM)=   -1.242   E(TOP)=    0.675  3  4   213
             LOCAL ORBITAL
:E3_0001: E( 3)=    0.8866   E(BOTTOM)=    0.681   E(TOP)=    1.092  0  1   121
             APW+lo
:E2_0001: E( 2)=    0.6871   E(BOTTOM)=    0.498   E(TOP)= -200.000  2 -1   119
             APW+lo

       K=   0.06250   0.00000   0.06250            1
:RKM  : MATRIX SIZE   337LOs:  40  RKM= 8.49  WEIGHT= 4.00  PGR:    
       EIGENVALUES ARE:
:EIG00001:      -1.7526404   -1.7133474   -0.5234907   -0.3676807   -0.3319446
:EIG00006:      -0.3180049   -0.3029062   -0.3028189    0.6839463    0.7675318
:EIG00011:       0.8717444    0.8762192    0.8767898    0.8821685    0.8911606
:EIG00016:       0.9086917    0.9150976    0.9159865    0.9207374    0.9239380
:EIG00021:       0.9320933    0.9343907    0.9352163    0.9485932    0.9732439
:EIG00026:       0.9953719    1.0928513    1.0978727    1.1633657    1.1980441
:EIG00031:       1.2081171    1.3558624    1.3812354    1.4523184    1.7563884
:EIG00036:       1.8040621    1.8406722    1.9375467    2.0513504    2.1199759
:EIG00041:       2.2662995    2.3496029    2.4735599    2.4977555    2.6503017
:EIG00046:       2.6517483    2.6702301    2.8115912    2.8288517    2.9610346
 
:EIG00051:       3.0270585    3.1148138    3.1216130    3.2518438    3.3113695
:EIG00056:       3.3217815    3.3784422    3.5046451    3.5451422    3.6596567
:EIG00061:       3.6712511    3.7894912    3.8533125    3.8785187    3.9221701
:EIG00066:       4.0863714    4.0919061    4.1863622    4.1961038    4.2405903
:EIG00071:       4.2636659    4.3264073    4.3433316    4.4656631    4.4747454
:EIG00076:       4.5108125    4.5429577    4.5903276    4.5963317    4.6548985
:EIG00081:       4.6668576    4.7051705    4.7344180    4.7889398    4.8098129
:EIG00086:       4.9251045    4.9492404    5.0276015    5.0616142    5.1040047
:EIG00091:       5.1139726    5.1419634    5.2012038    5.2350577    5.2366293
:EIG00096:       5.2525131    5.3333165    5.3386659    5.4019539    5.4466056
 
:EIG00101:       5.5310429    5.6446274    5.6943741    5.7649348    5.7706975
:EIG00106:       5.8410702    5.8638331    5.9243219    5.9664793    6.0179199
:EIG00111:       6.1211841    6.1544095    6.2778970    6.3221051    6.3651281
:EIG00116:       6.3858173    6.4762537    6.4938148    6.5525445    6.5702408
:EIG00121:       6.6584307    6.6858199    6.7321525    6.7877280    6.8297124
:EIG00126:       6.8998890    6.9579034    6.9777586    7.0131901    7.0730694
:EIG00131:       7.1348924    7.1572712    7.1705642    7.2665164    7.3259182
:EIG00136:       7.3393537    7.3588085    7.4608224    7.4830325    7.4834394
:EIG00141:       7.5235070    7.5314243    7.5787727    7.6430467    7.6887391
:EIG00146:       7.6931626    7.7320856    7.8294780    7.8382464    7.8915219
 
:EIG00151:       7.9281540    7.9499278    7.9589852    8.1450606    8.1543080
:EIG00156:       8.3071641    8.3241261    8.3414104    8.3727335
       ********************************************************

:KPT   :      NUMBER OF K-POINTS:   288
   0.0   0.0 angle (M,z), angle (M,x) deg
 
        SPIN-ORBIT EIGENVALUES:
     K=   0.06250   0.00000   0.06250            1
      MATRIX SIZE=  318   WEIGHT= 4.00
     EIGENVALUES ARE:
          -1.7526411   -1.7526411   -1.7133478   -1.7133478   -0.5777653
          -0.5777653   -0.4710387   -0.4710387   -0.3700031   -0.3700031
          -0.2576419   -0.2576419   -0.2539243   -0.2539243   -0.2366577
          -0.2366577    0.6840317    0.6840317    0.7674124    0.7674124
           0.8686755    0.8686755    0.8727959    0.8727959    0.8740124
           0.8740124    0.8794601    0.8794602    0.8873223    0.8873223
           0.8989596    0.8989596    0.9104353    0.9104353    0.9196429
           0.9196429    0.9265128    0.9265128    0.9276986    0.9276986

           0.9346435    0.9346435    0.9377086    0.9377086    0.9395689
           0.9395689    0.9520621    0.9520621    0.9745873    0.9745873
           0.9955941    0.9955941    1.0889528    1.0889528    1.1016069
           1.1016069    1.1638484    1.1638484    1.1975406    1.1975406
           1.2089460    1.2089462    1.3558081    1.3558081    1.3815083
           1.3815083    1.4524604    1.4524604    1.7567221    1.7567221
           1.8041028    1.8041028    1.8406575    1.8406575    1.9375413
           1.9375413    2.0511031    2.0511031    2.1194427    2.1194427

           2.2664062    2.2664062    2.3489473    2.3489473    2.4726794
           2.4726794    2.4979781    2.4979781    2.6503875    2.6503875
           2.6518218    2.6518218    2.6694264    2.6694264    2.8093380
           2.8093380    2.8311927    2.8311927    2.9611617    2.9611617
           3.0264994    3.0264994    3.1089486    3.1089486    3.1261401
           3.1261401    3.2516318    3.2516318    3.3100964    3.3100964
           3.3236878    3.3236878    3.3773409    3.3773409    3.5051298
           3.5051298    3.5464570    3.5464570    3.6586333    3.6586333

           3.6727835    3.6727835    3.7933699    3.7933699    3.8539415
           3.8539415    3.8784561    3.8784561    3.9224083    3.9224083
           4.0861408    4.0861408    4.0923727    4.0923727    4.1863713
           4.1863713    4.1960232    4.1960232    4.2406635    4.2406635
           4.2640918    4.2640918    4.3251013    4.3251013    4.3434934
           4.3434934    4.4635736    4.4635736    4.4769850    4.4769850

       ********************************************************
:GAP (global)   :    0.0    Ry =     0.0   eV (metal)
:GAP (this spin):    0.0    Ry =     0.0   eV (metal)
         Bandranges (emin - emax) and occupancy:
:BAN00018:  18    0.676719    0.831920  1.00000000
:BAN00019:  19    0.753799    0.853006  1.00000000
:BAN00020:  20    0.753799    0.853006  1.00000000
:BAN00021:  21    0.776391    0.880046  1.00000000
:BAN00022:  22    0.776391    0.880046  1.00000000
:BAN00023:  23    0.838701    0.885454  0.99478574
:BAN00024:  24    0.838701    0.885454  0.99478574
:BAN00025:  25    0.853627    0.897074  0.70237971
:BAN00026:  26    0.853627    0.897074  0.70237959
:BAN00027:  27    0.873157    0.899977  0.30283469
:BAN00028:  28    0.873157    0.899977  0.30283453
:BAN00029:  29    0.884874    0.903525  0.00000000
:BAN00030:  30    0.884874    0.903525  0.00000000
:BAN00031:  31    0.890313    0.912148  0.00000000
:BAN00032:  32    0.890313    0.912148  0.00000000
:BAN00033:  33    0.901955    0.920680  0.00000000
        Energy to separate low and high energystates:    0.62672


:NOE  : NUMBER OF ELECTRONS          =   26.000

:FER  : F E R M I - ENERGY(TETRAH.M.)=   0.8836465777
:GMA  : POTENTIAL AND CHARGE CUT-OFF  12.00 Ry**.5

:POS001: ATOM   -1 X,Y,Z = 0.00000 0.89750 0.25000  MULT= 2  ZZ= 59.000  Pr1       

       LMMAX 16
       LM=   0 0  1 0  2 0  2 2  3 0  3 2  4 0  4 2  4 4  5 0  5 2  5 4  6 0  6 2  6 4  6 6

:CHA001: TOTAL VALENCE CHARGE INSIDE SPHERE   1 =   9.6809    (RMT=  2.3000 )
:PCS001: PARTIAL CHARGES SPHERE =  1 S,P,D,F,PX,PY,PZ,D-Z2,D-X2Y2,D-XY,D-XZ,D-YZ 
:QTL001: 1.9397 4.9848 0.6790 2.0763 1.6598 1.6573 1.6677 0.1301 0.1205 0.1423 0.1382 0.1479
        Q-s-low E-s-low   Q-p-low E-p-low   Q-d-low E-d-low   Q-f-low E-f-low
:EPL001:  1.8689 -1.7114    4.9100 -0.4019    0.0078 -0.4124    0.0023 -0.4260
        Q-s-hi  E-s-hi    Q-p-hi  E-p-hi    Q-d-hi  E-d-hi    Q-f-hi  E-f-hi 
:EPH001:  0.0709  0.7952    0.0748  0.8253    0.6712  0.8154    2.0740  0.8612

                      VXX         VYY         VZZ       UP TO R
:VZZ001:             2.61760     6.31117    -8.92877       2.300

:CHA  : TOTAL VALENCE CHARGE INSIDE UNIT CELL =      26.000000

:SUM  : SUM OF EIGENVALUES =          -3.350739501


        1.ATOM      Pr1                  14 CORE STATES
       CORE-FORCE in mRy/a.u. = |F|      Fx             Fy             Fz
:FCO001:   1.ATOM   1642.576987104725      0.000000000000      0.000000000000   1642.576987104725

:1S 001: 1S               -3066.712385342 Ry
:2S 001: 2S                -492.466482623 Ry
:2PP001: 2P*               -465.565052316 Ry
:2P 001: 2P                -430.167759045 Ry
:3S 001: 3S                -105.562613445 Ry
:3PP001: 3P*                -94.100221915 Ry
:3P 001: 3P                 -87.092495343 Ry
:3DD001: 3D*                -67.018757564 Ry
:3D 001: 3D                 -65.507272604 Ry
:4S 001: 4S                 -20.231321472 Ry
:4PP001: 4P*                -15.937273183 Ry
:4P 001: 4P                 -14.408688635 Ry
:4DD001: 4D*                 -7.339296993 Ry
:4D 001: 4D                  -7.069479876 Ry
:CINT001 Core Integral Atom   1   45.998506

       DENSITY AT NUCLEUS
        JATOM        VALENCE       SEMI-CORE          CORE           TOTAL
:RTO001:   1      648.261803        0.000000   656826.053223   657474.315025
     
       CHARGES OF NEW CHARGE DENSITY
:NTO   : INTERSTITIAL CHARGE =     6.638206
:NPC   : PW Pseudocharge     =    17.307010
:NTO001: CHARGE SPHERE  1    =    55.679402

:NEC01: NUCLEAR AND ELECTRONIC CHARGE    118.00000   117.99701
     
       CHARGES OF OLD CHARGE DENSITY
:OTO   : INTERSTITIAL CHARGE =     6.720825
:OPC   : PW Pseudocharge     =    17.362535
:OTO001: CHARGE SPHERE  1    =    55.639588

:NEC02: NUCLEAR AND ELECTRONIC CHARGE    118.00000   118.00000
     
       CONVERGENCE TEST
:DTO001: DIFFERENCE IN SPHERE  1 =  0.0791886

:DIS  :  CHARGE DISTANCE       ( 0.0791886 for atom    1 spin 1)      0.0791886
 PW Mixed is          375
 
******************************************************
* MULTISECANT MIXING VER9 RELEASE 10.4.0              *
* Standard Mode with controls                        *
* Fixed density scale                                *
* Regularization       1.000E-04                     *
* Trust Upper Limit    5.000E+00                     *
* Max Number of Memory Steps    8                    *
******************************************************
 
:PWTMP   2.5438E+02  1.9467E+02  3.5631E+02
:PLANE:  PW TOTAL      5.5118 DISTAN   1.84E-02  3.35E-01 %
:CHARG:  CLM/ATOM   1381.9557 DISTAN   1.15E-01  8.32E-03 %
 
Step History
        DMIX         DMIXT        Red     Pred      Trust     Lambda    MagRel    MagAbs     Beta
  1   3.5000E-02   3.5000E-02 -1.00E+00  1.00E+00 -1.00E+01  1.00E+00  3.50E-02  3.50E-02  1.00E+00
:INFO :  Note, Pratt in use
:TRUST:  Step 3.75E-02  Charge 7.50E-02 (e) CTO  2.50E-01 (e) PW  3.50E-01 (e)
:DIRM :  MEMORY  0/ 8 SCALE   1.000
Performing Pseudo Compensation
Final Pseudo Compensation Rescaling     1.00000E+00
:MIX  :   PRATT  REGULARIZATION:  1.00E-04 GREED: 0.02500                  
     
       CHARGES OF MIXED CHARGE DENSITY
:CTO   : INTERSTITIAL CHARGE =     6.718834
:CPC   : PW Pseudocharge     =    17.347708
:CTO001: CHARGE SPHERE  1    =    55.640583

:NEC03: NUCLEAR AND ELECTRONIC CHARGE    118.00000   118.00000

PW CHANGE     H    K    L      Current       Change    Residue
:PTO001:      0    0    0  6.75434510E-02 -4.720E-05 -3.574E-04
:PTO003:      0    2    0  1.68672959E-02 -1.393E-05  1.599E-05
:PTO004:     -1    1    0  8.11559693E-02 -7.528E-05 -8.914E-05
:PTO005:      0    2   -1 -9.33908015E-02  8.762E-05  7.872E-05
:PTO006:      0    0   -2 -4.83953347E-02  4.553E-05  4.193E-05
:PTO007:     -1    1   -1 -9.89054872E-02  9.737E-05  1.013E-04
:PTO008:      0    2   -2 -1.48190507E-02  1.660E-05  3.362E-05
:PTO009:     -1    1   -2 -7.51884779E-02  8.001E-05  5.037E-05
:PTO011:     -1    3    0 -1.17405451E-02  1.328E-05  3.935E-05
:PTO012:     -1    3   -1 -4.98808564E-02  5.410E-05  1.657E-05
:PTO013:      0    4    0 -8.77600307E-03  9.764E-06  8.744E-06
:PTO014:      0    2   -3  2.02204616E-02 -2.223E-05 -3.127E-05

:ENE  : ********** TOTAL ENERGY IN Ry =       -36944.32145602

       TOTAL FORCE IN mRy/a.u. = |F|     Fx             Fy             Fz     with/without FOR in case.in2
:FOR001:   1.ATOM         12.940          0.000          0.000        -12.940 partial forces
       TOTAL FORCE WITH RESPECT TO GLOBAL CARTESIAN COORDINATES:
:FCA001:   1.ATOM                         0.000        -12.940          0.000 partial forces
       TOTAL FORCE WITH RESPECT TO THE GLOBAL COORDINATE SYSTEM:
:FGL001:   1.ATOM                 0.000000000   -12.939515033     0.000000000 partial forces
 Flat Integration
 New Mode for Coulomb Integral
 Consistent 3/8+Simpson combinations
 Extension of core to zero
 LDM version in phi
 Fifth-order quadrature in outwin


            ---------
:ITE017: 17. ITERATION
            ---------

:NATO :    1 INDEPENDENT AND    2 TOTAL ATOMS IN UNITCELL
       SUBSTANCE: aU                                                          

       LATTICE                      = CXY 
:POT  : POTENTIAL OPTION EX_LDA EC_LDA VX_LDA VC_LDA
:LAT  : LATTICE CONSTANTS=  5.85246 11.87613 10.25291    1.571    1.571    1.571
:VOL  : UNIT CELL VOLUME =     356.31200
       MODE OF CALCULATION IS       = RELA
       NON-SPINPOLARIZED CALCULATION
:IFFT  : FFT-parameters:   48   96   80 Factor: 2.00


   CONVERGENCE PARAMETER FOR PSEUDOCHARGE: NCON=  9
   MAXIMAL VALUE OF RMT(JATOM)*ABSK(NKK) : RK  =27.59714


:VKCOUL :  VK-COUL convergence: 0.186E-06
       ATOMNUMBER=  1 Pr1        VCOUL-ZERO =  0.36007E+00
:EFG001:                        EFG         =    -9.66707   *10**21  V / m**2
                               V20  TOT/SRF=    -8.37193    -0.04835
                               V22  TOT/SRF=    -1.96323    -0.00642
                               V22M TOT/SRF=     0.00000     0.00000
                               V21  TOT/SRF=     0.00000     0.00000
                               V21M TOT/SRF=     0.00000     0.00000

              2.87031    0.00000    0.00000        2.87031    0.00000    0.00000
              0.00000    6.79676    0.00000        0.00000    6.79676    0.00000
              0.00000    0.00000   -9.66707        0.00000    0.00000   -9.66707

         MAIN DIRECTIONS OF THE EFG   1.0000  0.0000  0.0000
                                      0.0000  1.0000  0.0000
                                      0.0000  0.0000  1.0000
:ANG001:  ANGLE WITH OLD X-AXIS =         0.0

:ETA001:                         ASYMM. ETA =     0.40617


     HELLMANN-FEYNMAN-FORCE IN mRy/a.u. = |F|  Fx       Fy             Fz
:FHF001:   1.ATOM   1654.259743413273      0.000000000000      0.000000000000  -1654.259743413273

:FIT001: LUSE= 13 SIGMA OF V-XC FIT FOR ATOM  1  0.5843402E-04
:FIT001: LUSE= 13 SIGMA OF V-XC FIT FOR ATOM  1  0.5843402E-04
:DEN  : DENSITY INTEGRAL  =        -14179.73524233   (Ry)
       ELS_POTENTIAL_AT Z=0 and Z=0.5:   0.87154   0.87154
       ELS_POTENTIAL_AT Y=0 and Y=0.5:   0.03549   0.03549
:VZERO:v0,v0c,v0x   0.21028   0.87154  -0.66126 v5,v5c,v5x   0.21028   0.87154  -0.66126
:VZERY:v0,v0c,v0x  -0.84062   0.03549  -0.87611 v5,v5c,v5x  -0.84062   0.03549  -0.87611
:VZERX:v0,v0c,v0x  -1.21900  -0.39165  -0.82735 v5,v5c,v5x  -1.21900  -0.39165  -0.82735
:LMAX-WF:   10   Non-Spherical LMAX:   4

          ATOMIC SPHERE DEPENDENT PARAMETERS FOR ATOM  Pr1       
:e__0001: OVERALL ENERGY PARAMETER IS    0.6848
          OVERALL BASIS SET ON ATOM IS LAPW
:E0_0001: E( 0)=    0.6848
             APW+lo
:E0_0001: E( 0)=   -1.7534   E(BOTTOM)=   -2.389   E(TOP)=   -1.118  4  5   205
             LOCAL ORBITAL
:E1_0001: E( 1)=    1.0848
             APW+lo
:E1_0001: E( 1)=   -0.2832   E(BOTTOM)=   -1.241   E(TOP)=    0.675  3  4   208
             LOCAL ORBITAL
:E3_0001: E( 3)=    0.8878   E(BOTTOM)=    0.682   E(TOP)=    1.093  0  1   122
             APW+lo
:E2_0001: E( 2)=    0.6848   E(BOTTOM)=    0.498   E(TOP)= -200.000  2 -1   123
             APW+lo

       K=   0.06250   0.00000   0.06250            1
:RKM  : MATRIX SIZE   337LOs:  40  RKM= 8.49  WEIGHT= 4.00  PGR:    
       EIGENVALUES ARE:
:EIG00001:      -1.7521843   -1.7128619   -0.5232862   -0.3673880   -0.3316298
:EIG00006:      -0.3176580   -0.3025659   -0.3024622    0.6837700    0.7674027
:EIG00011:       0.8725600    0.8771552    0.8777630    0.8830946    0.8920869
:EIG00016:       0.9097941    0.9162217    0.9171206    0.9218609    0.9250268
:EIG00021:       0.9332539    0.9354351    0.9362088    0.9497593    0.9737671
:EIG00026:       0.9956406    1.0929890    1.0978698    1.1633814    1.1980740
:EIG00031:       1.2081394    1.3558794    1.3813163    1.4524239    1.7563351
:EIG00036:       1.8040118    1.8405804    1.9375802    2.0512172    2.1198592
:EIG00041:       2.2662186    2.3495062    2.4734596    2.4976972    2.6502389
:EIG00046:       2.6516718    2.6700627    2.8114895    2.8287115    2.9608838
 
:EIG00051:       3.0269673    3.1147916    3.1215182    3.2518331    3.3113391
:EIG00056:       3.3216584    3.3783423    3.5047712    3.5450621    3.6595368
:EIG00061:       3.6711981    3.7894810    3.8531451    3.8784131    3.9221022
:EIG00066:       4.0863023    4.0917307    4.1861771    4.1959004    4.2404597
:EIG00071:       4.2635829    4.3263576    4.3431660    4.4654786    4.4745770
:EIG00076:       4.5106166    4.5428348    4.5901664    4.5961380    4.6546994
:EIG00081:       4.6666797    4.7049731    4.7342864    4.7887703    4.8095798
:EIG00086:       4.9248477    4.9490582    5.0274126    5.0615117    5.1037780
:EIG00091:       5.1138538    5.1417534    5.2011823    5.2350277    5.2364397
:EIG00096:       5.2522668    5.3330883    5.3384579    5.4018475    5.4464334
 
:EIG00101:       5.5309008    5.6444638    5.6942217    5.7647129    5.7704723
:EIG00106:       5.8409396    5.8636256    5.9240837    5.9662663    6.0177714
:EIG00111:       6.1210422    6.1542183    6.2778048    6.3218909    6.3649866
:EIG00116:       6.3857645    6.4762390    6.4936849    6.5523951    6.5701999
:EIG00121:       6.6583208    6.6857000    6.7320980    6.7875623    6.8295443
:EIG00126:       6.8997157    6.9577286    6.9776125    7.0130734    7.0728960
:EIG00131:       7.1347558    7.1571437    7.1703596    7.2664582    7.3258286
:EIG00136:       7.3391879    7.3586267    7.4607674    7.4828647    7.4832595
:EIG00141:       7.5232670    7.5312897    7.5785605    7.6428724    7.6885737
:EIG00146:       7.6931670    7.7319944    7.8292894    7.8380863    7.8913070
 
:EIG00151:       7.9280982    7.9497151    7.9590767    8.1449737    8.1541248
:EIG00156:       8.3070134    8.3239512    8.3412958    8.3726064
       ********************************************************

:KPT   :      NUMBER OF K-POINTS:   288
   0.0   0.0 angle (M,z), angle (M,x) deg
 
        SPIN-ORBIT EIGENVALUES:
     K=   0.06250   0.00000   0.06250            1
      MATRIX SIZE=  318   WEIGHT= 4.00
     EIGENVALUES ARE:
          -1.7521850   -1.7521850   -1.7128624   -1.7128624   -0.5775014
          -0.5775014   -0.4706708   -0.4706708   -0.3697343   -0.3697343
          -0.2573232   -0.2573232   -0.2536094   -0.2536094   -0.2363334
          -0.2363334    0.6838555    0.6838555    0.7672845    0.7672845
           0.8695326    0.8695326    0.8737624    0.8737624    0.8749863
           0.8749863    0.8804147    0.8804147    0.8882885    0.8882885
           0.9000947    0.9000947    0.9114499    0.9114499    0.9207373
           0.9207373    0.9276250    0.9276250    0.9287837    0.9287837

           0.9356926    0.9356926    0.9387049    0.9387049    0.9406491
           0.9406491    0.9532230    0.9532230    0.9751467    0.9751467
           0.9958838    0.9958838    1.0890700    1.0890700    1.1016332
           1.1016332    1.1638637    1.1638638    1.1975727    1.1975727
           1.2089675    1.2089677    1.3558258    1.3558258    1.3815888
           1.3815888    1.4525657    1.4525657    1.7566689    1.7566689
           1.8040527    1.8040527    1.8405659    1.8405659    1.9375746
           1.9375746    2.0509702    2.0509702    2.1193260    2.1193260

           2.2663255    2.2663255    2.3488510    2.3488510    2.4725818
           2.4725818    2.4979172    2.4979172    2.6503202    2.6503202
           2.6517488    2.6517488    2.6692607    2.6692607    2.8092313
           2.8092313    2.8310583    2.8310583    2.9610115    2.9610115
           3.0264081    3.0264081    3.1089062    3.1089062    3.1260653
           3.1260653    3.2516211    3.2516211    3.3100499    3.3100499
           3.3235779    3.3235779    3.3772422    3.3772422    3.5052541
           3.5052541    3.5463776    3.5463776    3.6585189    3.6585189

           3.6727287    3.6727287    3.7933515    3.7933515    3.8537786
           3.8537786    3.8783509    3.8783509    3.9223402    3.9223402
           4.0860659    4.0860659    4.0922028    4.0922028    4.1861859
           4.1861859    4.1958201    4.1958201    4.2405328    4.2405328
           4.2640088    4.2640088    4.3250491    4.3250491    4.3433284
           4.3433284    4.4633901    4.4633901    4.4768162    4.4768162

       ********************************************************
:GAP (global)   :    0.0    Ry =     0.0   eV (metal)
:GAP (this spin):    0.0    Ry =     0.0   eV (metal)
         Bandranges (emin - emax) and occupancy:
:BAN00018:  18    0.676541    0.832217  1.00000000
:BAN00019:  19    0.753660    0.853526  1.00000000
:BAN00020:  20    0.753660    0.853526  1.00000000
:BAN00021:  21    0.776294    0.881040  1.00000000
:BAN00022:  22    0.776294    0.881040  1.00000000
:BAN00023:  23    0.839008    0.886437  0.99479334
:BAN00024:  24    0.839008    0.886437  0.99479333
:BAN00025:  25    0.854151    0.898189  0.70377681
:BAN00026:  26    0.854151    0.898189  0.70377670
:BAN00027:  27    0.873915    0.901107  0.30143000
:BAN00028:  28    0.873915    0.901107  0.30142983
:BAN00029:  29    0.885809    0.904686  0.00000000
:BAN00030:  30    0.885809    0.904686  0.00000000
:BAN00031:  31    0.891304    0.913095  0.00000000
:BAN00032:  32    0.891304    0.913095  0.00000000
:BAN00033:  33    0.903034    0.921703  0.00000000
        Energy to separate low and high energystates:    0.62654


:NOE  : NUMBER OF ELECTRONS          =   26.000

:FER  : F E R M I - ENERGY(TETRAH.M.)=   0.8846015444
:GMA  : POTENTIAL AND CHARGE CUT-OFF  12.00 Ry**.5

:POS001: ATOM   -1 X,Y,Z = 0.00000 0.89750 0.25000  MULT= 2  ZZ= 59.000  Pr1       

       LMMAX 16
       LM=   0 0  1 0  2 0  2 2  3 0  3 2  4 0  4 2  4 4  5 0  5 2  5 4  6 0  6 2  6 4  6 6

:CHA001: TOTAL VALENCE CHARGE INSIDE SPHERE   1 =   9.6695    (RMT=  2.3000 )
:PCS001: PARTIAL CHARGES SPHERE =  1 S,P,D,F,PX,PY,PZ,D-Z2,D-X2Y2,D-XY,D-XZ,D-YZ 
:QTL001: 1.9400 4.9849 0.6833 2.0601 1.6598 1.6573 1.6679 0.1311 0.1215 0.1429 0.1391 0.1487
        Q-s-low E-s-low   Q-p-low E-p-low   Q-d-low E-d-low   Q-f-low E-f-low
:EPL001:  1.8688 -1.7110    4.9094 -0.4016    0.0078 -0.4121    0.0023 -0.4258
        Q-s-hi  E-s-hi    Q-p-hi  E-p-hi    Q-d-hi  E-d-hi    Q-f-hi  E-f-hi 
:EPH001:  0.0712  0.7955    0.0756  0.8258    0.6755  0.8158    2.0578  0.8620

                      VXX         VYY         VZZ       UP TO R
:VZZ001:             2.69137     6.38744    -9.07882       2.300

:CHA  : TOTAL VALENCE CHARGE INSIDE UNIT CELL =      26.000000

:SUM  : SUM OF EIGENVALUES =          -3.341553692


        1.ATOM      Pr1                  14 CORE STATES
       CORE-FORCE in mRy/a.u. = |F|      Fx             Fy             Fz
:FCO001:   1.ATOM   1641.467386546083      0.000000000000      0.000000000000   1641.467386546083

:1S 001: 1S               -3066.709974150 Ry
:2S 001: 2S                -492.464062579 Ry
:2PP001: 2P*               -465.562634090 Ry
:2P 001: 2P                -430.165340203 Ry
:3S 001: 3S                -105.560249428 Ry
:3PP001: 3P*                -94.097852409 Ry
:3P 001: 3P                 -87.090136240 Ry
:3DD001: 3D*                -67.016379672 Ry
:3D 001: 3D                 -65.504897249 Ry
:4S 001: 4S                 -20.229515061 Ry
:4PP001: 4P*                -15.935501840 Ry
:4P 001: 4P                 -14.406971609 Ry
:4DD001: 4D*                 -7.337675957 Ry
:4D 001: 4D                  -7.067877359 Ry
:CINT001 Core Integral Atom   1   45.998504

       DENSITY AT NUCLEUS
        JATOM        VALENCE       SEMI-CORE          CORE           TOTAL
:RTO001:   1      648.305357        0.000000   656825.938846   657474.244203
     
       CHARGES OF NEW CHARGE DENSITY
:NTO   : INTERSTITIAL CHARGE =     6.661072
:NPC   : PW Pseudocharge     =    17.315328
:NTO001: CHARGE SPHERE  1    =    55.667967

:NEC01: NUCLEAR AND ELECTRONIC CHARGE    118.00000   117.99701
     
       CHARGES OF OLD CHARGE DENSITY
:OTO   : INTERSTITIAL CHARGE =     6.718834
:OPC   : PW Pseudocharge     =    17.347708
:OTO001: CHARGE SPHERE  1    =    55.640583

:NEC02: NUCLEAR AND ELECTRONIC CHARGE    118.00000   118.00000
     
       CONVERGENCE TEST
:DTO001: DIFFERENCE IN SPHERE  1 =  0.0569678

:DIS  :  CHARGE DISTANCE       ( 0.0569678 for atom    1 spin 1)      0.0569678
 PW Mixed is          375
 
******************************************************
* MULTISECANT MIXING VER9 RELEASE 10.4.0              *
* Slow Mode, cautious                                *
* Fixed density scale                                *
* Regularization       1.000E-04                     *
* Step Trust Radius    0.75000                       *
* Trust Upper Limit    2.000E+00                     *
* Max Number of Memory Steps   12                    *
******************************************************
 
:PWTMP   2.5438E+02  1.9467E+02  3.5631E+02
:PLANE:  PW TOTAL      5.5071 DISTAN   1.14E-02  2.07E-01 %
:CHARG:  CLM/ATOM   1381.9558 DISTAN   8.42E-02  6.10E-03 %
 
Step History
        DMIX         DMIXT        Red     Pred      Trust     Lambda    MagRel    MagAbs     Beta
  1   3.5000E-02   3.5000E-02 -1.00E+00  1.00E+00 -1.00E+01  1.00E+00  3.50E-02  3.50E-02  1.00E+00
  2   2.5000E-02   2.5000E-02 -1.00E+00  1.00E+00 -1.00E+01  1.00E+00  2.50E-02  2.91E-03  1.00E+00
:JACOBIANS    1.536E-02   4.184E-02
  
:NORMS:  1/Froebius, Min, Max, Used   0.2999E-01  0.2999E-01  0.1141E+00  0.2999E-01
:INFO :  Number of Memory Steps    1 Skipping    0
:PREDicted Charge, CTotal, PW Trust    3.446E-03   6.892E-03   3.181E-02
:PREDicted DMix, Beta, BLim   1.0000E-02  3.4620E+00  4.5523E-01

Eigenvalues, unscaled except for SY+YY
   #     SY Real        SY Imag          SS             YY         SY+YY Real      SY+YY Imag
   1   1.140811E-01   0.000000E+00   2.999369E-02   1.000000E+00   1.114081E+00   0.000000E+00
 
:BLIM :  VZERO Control Off
:TRUST:  Step 4.55E-01  Charge 7.50E-02 (e) CTO  2.50E-01 (e) PW  3.50E-01 (e)
:DIRM :  MEMORY  1/12 SCALE   1.000 RED  0.73 PRED  1.00 NEXT  0.32 
:TRAVE:  Charge 2.39E-03 (e) CTO  4.77E-03 (e) PW  2.22E-02 (e)
:DIRP :  |MSR1|= 1.180E-02 |PRATT|= 1.139E-02 ANGLE=  62.4 DEGREES
:DIRQ :  |MSR1|= 7.245E-03 |PRATT|= 8.424E-02 ANGLE=   0.9 DEGREES
:DIRT :  |MSR1|= 1.385E-02 |PRATT|= 8.501E-02 ANGLE=  55.2 DEGREES
:MIX  :   MSR1   REGULARIZATION:  1.00E-04 GREED: 0.02000  Newton 1.00  0.1629                
     
       CHARGES OF MIXED CHARGE DENSITY
:CTO   : INTERSTITIAL CHARGE =     6.714062
:CPC   : PW Pseudocharge     =    17.311851
:CTO001: CHARGE SPHERE  1    =    55.642969

:NEC03: NUCLEAR AND ELECTRONIC CHARGE    118.00000   118.00000

PW CHANGE     H    K    L      Current       Change    Residue
:PTO001:      0    0    0  6.74294242E-02 -1.140E-04 -2.228E-04
:PTO003:      0    2    0  1.68335905E-02 -3.371E-05  2.006E-05
:PTO004:     -1    1    0  8.09739491E-02 -1.820E-04 -1.529E-05
:PTO005:      0    2   -1 -9.31792869E-02  2.115E-04 -4.795E-06
:PTO006:      0    0   -2 -4.82854249E-02  1.099E-04 -1.580E-06
:PTO007:     -1    1   -1 -9.86698210E-02  2.357E-04  1.346E-05
:PTO008:      0    2   -2 -1.47787870E-02  4.026E-05  1.519E-05
:PTO009:     -1    1   -2 -7.49953500E-02  1.931E-04 -1.972E-05
:PTO011:     -1    3    0 -1.17082350E-02  3.231E-05  2.233E-05
:PTO012:     -1    3   -1 -4.97504649E-02  1.304E-04 -2.873E-05
:PTO013:      0    4    0 -8.75232687E-03  2.368E-05  9.628E-07
:PTO014:      0    2   -3  2.01668198E-02 -5.364E-05 -6.431E-06

:ENE  : ********** TOTAL ENERGY IN Ry =       -36944.32127899

       TOTAL FORCE IN mRy/a.u. = |F|     Fx             Fy             Fz     with/without FOR in case.in2
:FOR001:   1.ATOM         12.792          0.000          0.000        -12.792 partial forces
       TOTAL FORCE WITH RESPECT TO GLOBAL CARTESIAN COORDINATES:
:FCA001:   1.ATOM                         0.000        -12.792          0.000 partial forces
       TOTAL FORCE WITH RESPECT TO THE GLOBAL COORDINATE SYSTEM:
:FGL001:   1.ATOM                 0.000000000   -12.792356867     0.000000000 partial forces
 Flat Integration
 New Mode for Coulomb Integral
 Consistent 3/8+Simpson combinations
 Extension of core to zero
 LDM version in phi
 Fifth-order quadrature in outwin


            ---------
:ITE018: 18. ITERATION
            ---------

:NATO :    1 INDEPENDENT AND    2 TOTAL ATOMS IN UNITCELL
       SUBSTANCE: aU                                                          

       LATTICE                      = CXY 
:POT  : POTENTIAL OPTION EX_LDA EC_LDA VX_LDA VC_LDA
:LAT  : LATTICE CONSTANTS=  5.85246 11.87613 10.25291    1.571    1.571    1.571
:VOL  : UNIT CELL VOLUME =     356.31200
       MODE OF CALCULATION IS       = RELA
       NON-SPINPOLARIZED CALCULATION
:IFFT  : FFT-parameters:   48   96   80 Factor: 2.00


   CONVERGENCE PARAMETER FOR PSEUDOCHARGE: NCON=  9
   MAXIMAL VALUE OF RMT(JATOM)*ABSK(NKK) : RK  =27.59714


:VKCOUL :  VK-COUL convergence: 0.186E-06
       ATOMNUMBER=  1 Pr1        VCOUL-ZERO =  0.35948E+00
:EFG001:                        EFG         =    -9.62173   *10**21  V / m**2
                               V20  TOT/SRF=    -8.33266    -0.04821
                               V22  TOT/SRF=    -1.95385    -0.00636
                               V22M TOT/SRF=     0.00000     0.00000
                               V21  TOT/SRF=     0.00000     0.00000
                               V21M TOT/SRF=     0.00000     0.00000

              2.85701    0.00000    0.00000        2.85701    0.00000    0.00000
              0.00000    6.76472    0.00000        0.00000    6.76472    0.00000
              0.00000    0.00000   -9.62173        0.00000    0.00000   -9.62173

         MAIN DIRECTIONS OF THE EFG   1.0000  0.0000  0.0000
                                      0.0000  1.0000  0.0000
                                      0.0000  0.0000  1.0000
:ANG001:  ANGLE WITH OLD X-AXIS =         0.0

:ETA001:                         ASYMM. ETA =     0.40613


     HELLMANN-FEYNMAN-FORCE IN mRy/a.u. = |F|  Fx       Fy             Fz
:FHF001:   1.ATOM   1650.892649003590      0.000000000000      0.000000000000  -1650.892649003590

:FIT001: LUSE= 13 SIGMA OF V-XC FIT FOR ATOM  1  0.5813587E-04
:FIT001: LUSE= 13 SIGMA OF V-XC FIT FOR ATOM  1  0.5813587E-04
:DEN  : DENSITY INTEGRAL  =        -14180.23503629   (Ry)
       ELS_POTENTIAL_AT Z=0 and Z=0.5:   0.87053   0.87053
       ELS_POTENTIAL_AT Y=0 and Y=0.5:   0.03536   0.03536
:VZERO:v0,v0c,v0x   0.20943   0.87053  -0.66109 v5,v5c,v5x   0.20943   0.87053  -0.66109
:VZERY:v0,v0c,v0x  -0.84041   0.03536  -0.87576 v5,v5c,v5x  -0.84041   0.03536  -0.87576
:VZERX:v0,v0c,v0x  -1.21806  -0.39106  -0.82700 v5,v5c,v5x  -1.21806  -0.39106  -0.82700
:LMAX-WF:   10   Non-Spherical LMAX:   4

          ATOMIC SPHERE DEPENDENT PARAMETERS FOR ATOM  Pr1       
:e__0001: OVERALL ENERGY PARAMETER IS    0.6847
          OVERALL BASIS SET ON ATOM IS LAPW
:E0_0001: E( 0)=    0.6847
             APW+lo
:E0_0001: E( 0)=   -1.7521   E(BOTTOM)=   -2.388   E(TOP)=   -1.116  4  5   209
             LOCAL ORBITAL
:E1_0001: E( 1)=    1.0847
             APW+lo
:E1_0001: E( 1)=   -0.2821   E(BOTTOM)=   -1.241   E(TOP)=    0.677  3  4   213
             LOCAL ORBITAL
:E3_0001: E( 3)=    0.8907   E(BOTTOM)=    0.685   E(TOP)=    1.097  0  1   114
             APW+lo
:E2_0001: E( 2)=    0.6847   E(BOTTOM)=    0.498   E(TOP)= -200.000  2 -1   122
             APW+lo

       K=   0.06250   0.00000   0.06250            1
:RKM  : MATRIX SIZE   337LOs:  40  RKM= 8.49  WEIGHT= 4.00  PGR:    
       EIGENVALUES ARE:
:EIG00001:      -1.7510546   -1.7116598   -0.5227779   -0.3666610   -0.3308483
:EIG00006:      -0.3167935   -0.3017238   -0.3015734    0.6833511    0.7670947
:EIG00011:       0.8745538    0.8794663    0.8801609    0.8853763    0.8943655
:EIG00016:       0.9125213    0.9190013    0.9199253    0.9246365    0.9277120
:EIG00021:       0.9361154    0.9380047    0.9386450    0.9526385    0.9751168
:EIG00026:       0.9963522    1.0933475    1.0978744    1.1634343    1.1981610
:EIG00031:       1.2082066    1.3559311    1.3815237    1.4526862    1.7562220
:EIG00036:       1.8039042    1.8403680    1.9376589    2.0509042    2.1195808
:EIG00041:       2.2660284    2.3492730    2.4732074    2.4975486    2.6500545
:EIG00046:       2.6514498    2.6696464    2.8112272    2.8283428    2.9604995
 
:EIG00051:       3.0267013    3.1146962    3.1212423    3.2517225    3.3112191
:EIG00056:       3.3213086    3.3780819    3.5049112    3.5448344    3.6591438
:EIG00061:       3.6710434    3.7893783    3.8526752    3.8780635    3.9218277
:EIG00066:       4.0859978    4.0912298    4.1856630    4.1953822    4.2400573
:EIG00071:       4.2633185    4.3261617    4.3427159    4.4649994    4.4741132
:EIG00076:       4.5100977    4.5424415    4.5896719    4.5956137    4.6541914
:EIG00081:       4.6661735    4.7044485    4.7338967    4.7882802    4.8089544
:EIG00086:       4.9241874    4.9485695    5.0268966    5.0610878    5.1031564
:EIG00091:       5.1135091    5.1411785    5.2008987    5.2347464    5.2359101
:EIG00096:       5.2516455    5.3324888    5.3378797    5.4014528    5.4459370
 
:EIG00101:       5.5304388    5.6439416    5.6937690    5.7640871    5.7698462
:EIG00106:       5.8405063    5.8630323    5.9234315    5.9656851    6.0172863
:EIG00111:       6.1205599    6.1536560    6.2773552    6.3212716    6.3644708
:EIG00116:       6.3853692    6.4759717    6.4931838    6.5518505    6.5697955
:EIG00121:       6.6578092    6.6852149    6.7316602    6.7870134    6.8289980
:EIG00126:       6.8991292    6.9571655    6.9771076    7.0125828    7.0723395
:EIG00131:       7.1342542    7.1566073    7.1697581    7.2660708    7.3253766
:EIG00136:       7.3386163    7.3580342    7.4603416    7.4822704    7.4826786
:EIG00141:       7.5225726    7.5307560    7.5779066    7.6423161    7.6879878
:EIG00146:       7.6927499    7.7314802    7.8286558    7.8374994    7.8906555
 
:EIG00151:       7.9276023    7.9490647    7.9587471    8.1445089    8.1535158
:EIG00156:       8.3064519    8.3233302    8.3407656    8.3720727
       ********************************************************

:KPT   :      NUMBER OF K-POINTS:   288
   0.0   0.0 angle (M,z), angle (M,x) deg
 
        SPIN-ORBIT EIGENVALUES:
     K=   0.06250   0.00000   0.06250            1
      MATRIX SIZE=  318   WEIGHT= 4.00
     EIGENVALUES ARE:
          -1.7510553   -1.7510553   -1.7116603   -1.7116603   -0.5768473
          -0.5768473   -0.4697592   -0.4697592   -0.3690658   -0.3690658
          -0.2565300   -0.2565300   -0.2528258   -0.2528258   -0.2355289
          -0.2355289    0.6834369    0.6834369    0.7669790    0.7669790
           0.8716303    0.8716303    0.8761458    0.8761458    0.8773892
           0.8773892    0.8827657    0.8827657    0.8906634    0.8906634
           0.9029019    0.9029019    0.9139567    0.9139567    0.9234412
           0.9234412    0.9303732    0.9303733    0.9314582    0.9314582

           0.9382700    0.9382701    0.9411441    0.9411441    0.9433272
           0.9433272    0.9560896    0.9560896    0.9765859    0.9765859
           0.9966496    0.9966496    1.0893731    1.0893731    1.1017151
           1.1017151    1.1639159    1.1639159    1.1976650    1.1976650
           1.2090328    1.2090329    1.3558792    1.3558792    1.3817950
           1.3817950    1.4528273    1.4528273    1.7565562    1.7565562
           1.8039454    1.8039454    1.8403538    1.8403538    1.9376527
           1.9376527    2.0506579    2.0506579    2.1190472    2.1190472

           2.2661353    2.2661353    2.3486184    2.3486184    2.4723360
           2.4723360    2.4977620    2.4977620    2.6501269    2.6501269
           2.6515336    2.6515336    2.6688475    2.6688475    2.8089555
           2.8089555    2.8307040    2.8307040    2.9606281    2.9606281
           3.0261422    3.0261422    3.1087566    3.1087566    3.1258423
           3.1258423    3.2515102    3.2515102    3.3098903    3.3098903
           3.3232621    3.3232621    3.3769826    3.3769826    3.5053903
           3.5053903    3.5461516    3.5461516    3.6581429    3.6581429

           3.6725629    3.6725629    3.7932324    3.7932324    3.8533187
           3.8533187    3.8780020    3.8780020    3.9220653    3.9220653
           4.0857499    4.0857499    4.0917130    4.0917130    4.1856716
           4.1856716    4.1953026    4.1953026    4.2401306    4.2401306
           4.2637444    4.2637444    4.3248466    4.3248466    4.3428799
           4.3428799    4.4629101    4.4629101    4.4763541    4.4763541

       ********************************************************
:GAP (global)   :    0.0    Ry =     0.0   eV (metal)
:GAP (this spin):    0.0    Ry =     0.0   eV (metal)
         Bandranges (emin - emax) and occupancy:
:BAN00018:  18    0.676118    0.833039  1.00000000
:BAN00019:  19    0.753328    0.854789  1.00000000
:BAN00020:  20    0.753328    0.854789  1.00000000
:BAN00021:  21    0.776062    0.883489  1.00000000
:BAN00022:  22    0.776062    0.883489  1.00000000
:BAN00023:  23    0.839743    0.888853  0.99481886
:BAN00024:  24    0.839743    0.888853  0.99481884
:BAN00025:  25    0.855435    0.900943  0.70713194
:BAN00026:  26    0.855435    0.900943  0.70713179
:BAN00027:  27    0.875783    0.903899  0.29804937
:BAN00028:  28    0.875783    0.903899  0.29804920
:BAN00029:  29    0.888114    0.907557  0.00000000
:BAN00030:  30    0.888114    0.907557  0.00000000
:BAN00031:  31    0.893747    0.915435  0.00000000
:BAN00032:  32    0.893747    0.915435  0.00000000
:BAN00033:  33    0.905699    0.924222  0.00000000
        Energy to separate low and high energystates:    0.62612


:NOE  : NUMBER OF ELECTRONS          =   26.000

:FER  : F E R M I - ENERGY(TETRAH.M.)=   0.8869568922
:GMA  : POTENTIAL AND CHARGE CUT-OFF  12.00 Ry**.5

:POS001: ATOM   -1 X,Y,Z = 0.00000 0.89750 0.25000  MULT= 2  ZZ= 59.000  Pr1       

       LMMAX 16
       LM=   0 0  1 0  2 0  2 2  3 0  3 2  4 0  4 2  4 4  5 0  5 2  5 4  6 0  6 2  6 4  6 6

:CHA001: TOTAL VALENCE CHARGE INSIDE SPHERE   1 =   9.6416    (RMT=  2.3000 )
:PCS001: PARTIAL CHARGES SPHERE =  1 S,P,D,F,PX,PY,PZ,D-Z2,D-X2Y2,D-XY,D-XZ,D-YZ 
:QTL001: 1.9406 4.9854 0.6939 2.0207 1.6598 1.6574 1.6682 0.1334 0.1240 0.1445 0.1413 0.1508
        Q-s-low E-s-low   Q-p-low E-p-low   Q-d-low E-d-low   Q-f-low E-f-low
:EPL001:  1.8686 -1.7097    4.9078 -0.4009    0.0078 -0.4114    0.0023 -0.4251
        Q-s-hi  E-s-hi    Q-p-hi  E-p-hi    Q-d-hi  E-d-hi    Q-f-hi  E-f-hi 
:EPH001:  0.0719  0.7960    0.0775  0.8269    0.6861  0.8168    2.0184  0.8639

                      VXX         VYY         VZZ       UP TO R
:VZZ001:             2.86995     6.58105    -9.45100       2.300

:CHA  : TOTAL VALENCE CHARGE INSIDE UNIT CELL =      26.000000

:SUM  : SUM OF EIGENVALUES =          -3.318899816


        1.ATOM      Pr1                  14 CORE STATES
       CORE-FORCE in mRy/a.u. = |F|      Fx             Fy             Fz
:FCO001:   1.ATOM   1638.413208002565      0.000000000000      0.000000000000   1638.413208002565

:1S 001: 1S               -3066.704082154 Ry
:2S 001: 2S                -492.458132558 Ry
:2PP001: 2P*               -465.556712121 Ry
:2P 001: 2P                -430.159415378 Ry
:3S 001: 3S                -105.554427935 Ry
:3PP001: 3P*                -94.092018958 Ry
:3P 001: 3P                 -87.084326948 Ry
:3DD001: 3D*                -67.010528156 Ry
:3D 001: 3D                 -65.499051442 Ry
:4S 001: 4S                 -20.225050597 Ry
:4PP001: 4P*                -15.931124060 Ry
:4P 001: 4P                 -14.402727606 Ry
:4DD001: 4D*                 -7.333669251 Ry
:4D 001: 4D                  -7.063916316 Ry
:CINT001 Core Integral Atom   1   45.998501

       DENSITY AT NUCLEUS
        JATOM        VALENCE       SEMI-CORE          CORE           TOTAL
:RTO001:   1      648.406798        0.000000   656825.663113   657474.069911
     
       CHARGES OF NEW CHARGE DENSITY
:NTO   : INTERSTITIAL CHARGE =     6.716816
:NPC   : PW Pseudocharge     =    17.335606
:NTO001: CHARGE SPHERE  1    =    55.640092

:NEC01: NUCLEAR AND ELECTRONIC CHARGE    118.00000   117.99700
     
       CHARGES OF OLD CHARGE DENSITY
:OTO   : INTERSTITIAL CHARGE =     6.714062
:OPC   : PW Pseudocharge     =    17.311851
:OTO001: CHARGE SPHERE  1    =    55.642969

:NEC02: NUCLEAR AND ELECTRONIC CHARGE    118.00000   118.00000
     
       CONVERGENCE TEST
:DTO001: DIFFERENCE IN SPHERE  1 =  0.0070375

:DIS  :  CHARGE DISTANCE       ( 0.0070375 for atom    1 spin 1)      0.0070375
 PW Mixed is          375
 
******************************************************
* MULTISECANT MIXING VER9 RELEASE 10.4.0              *
* Slow Mode, cautious                                *
* Fixed density scale                                *
* Regularization       1.000E-04                     *
* Step Trust Radius    0.75000                       *
* Trust Upper Limit    2.000E+00                     *
* Max Number of Memory Steps   12                    *
******************************************************
 
:PWTMP   2.5438E+02  1.9467E+02  3.5631E+02
:PLANE:  PW TOTAL      5.4955 DISTAN   1.12E-02  2.04E-01 %
:CHARG:  CLM/ATOM   1381.9561 DISTAN   2.40E-02  1.74E-03 %
 
Step History
        DMIX         DMIXT        Red     Pred      Trust     Lambda    MagRel    MagAbs     Beta
  1   3.5000E-02   3.5000E-02 -1.00E+00  1.00E+00 -1.00E+01  1.00E+00  3.50E-02  3.50E-02  1.00E+00
  2   2.5000E-02   2.5000E-02  7.30E-01  1.00E+00 -1.00E+01  1.00E+00  2.50E-02  2.91E-03  1.00E+00
  3   2.0000E-02   2.0000E-02 -1.00E+00  3.18E-01  4.55E-01  1.00E+00  1.63E-01  1.38E-02  1.00E+00
:JACOBIANS    2.279E-02   6.354E-02
  
:NORMS:  1/Froebius, Min, Max, Used   0.1733E+00  0.1733E+00  0.5874E+00  0.1740E+00
:INFO :  Number of Memory Steps    2 Skipping    0
:INFO :  SLambda=    1.0591728111  Max    1.0591728111
:PREDicted Charge, CTotal, PW Trust    2.391E-03   4.782E-03   2.222E-02
:PREDicted DMix, Beta, BLim   1.3488E-03  1.0052E+00  3.3074E-01

Eigenvalues, unscaled except for SY+YY
   #     SY Real        SY Imag          SS             YY         SY+YY Real      SY+YY Imag
   1   2.033312E-06   0.000000E+00   6.004413E-02   1.999997E+00   5.537474E-06   0.000000E+00
   2   2.297120E-01   0.000000E+00   1.840863E-06   3.407901E-06   2.243301E+00   0.000000E+00
 
:INFO :  Singular value  2.243E+00 Weight  1.000E+00 Projection  1.208E-08
:INFO :  Singular value  5.537E-06 Weight  7.660E-04 Projection -1.048E-02
:RANK :  ACTIVE   1.00/2  =  50.04 % ; YY RANK   1.00/2  =  50.01 %
 
:BLIM :  VZERO Control Off
:TRUST:  Step 5.69E-01  Charge 7.50E-02 (e) CTO  2.50E-01 (e) PW  3.50E-01 (e)
:DIRM :  MEMORY  2/12 SCALE   1.000 RED  0.31 PRED  0.32 NEXT  1.00 
:TRAVE:  Charge 1.21E-03 (e) CTO  2.43E-03 (e) PW  1.12E-02 (e)
:DIRP :  |MSR1|= 1.512E-04 |PRATT|= 1.122E-02 ANGLE=   0.2 DEGREES
:DIRQ :  |MSR1|= 3.297E-04 |PRATT|= 2.400E-02 ANGLE=   0.2 DEGREES
:DIRT :  |MSR1|= 3.628E-04 |PRATT|= 2.649E-02 ANGLE=   0.5 DEGREES
:MIX  :   MSE1   REGULARIZATION:  2.00E-04 GREED: 0.01317  Newton 1.00  0.0137                
     
       CHARGES OF MIXED CHARGE DENSITY
:CTO   : INTERSTITIAL CHARGE =     6.714140
:CPC   : PW Pseudocharge     =    17.312275
:CTO001: CHARGE SPHERE  1    =    55.642930

:NEC03: NUCLEAR AND ELECTRONIC CHARGE    118.00000   118.00000

PW CHANGE     H    K    L      Current       Change    Residue
:PTO001:      0    0    0  6.74308332E-02  1.409E-06  1.045E-04
:PTO003:      0    2    0  1.68339946E-02  4.041E-07  3.003E-05
:PTO004:     -1    1    0  8.09761401E-02  2.191E-06  1.628E-04
:PTO005:      0    2   -1 -9.31820764E-02 -2.790E-06 -2.069E-04
:PTO006:      0    0   -2 -4.82868581E-02 -1.433E-06 -1.063E-04
:PTO007:     -1    1   -1 -9.86724878E-02 -2.667E-06 -1.983E-04
:PTO008:      0    2   -2 -1.47791821E-02 -3.952E-07 -2.948E-05
:PTO009:     -1    1   -2 -7.49978806E-02 -2.531E-06 -1.877E-04
:PTO011:     -1    3    0 -1.17084817E-02 -2.467E-07 -1.851E-05
:PTO012:     -1    3   -1 -4.97523113E-02 -1.846E-06 -1.368E-04
:PTO013:      0    4    0 -8.75256791E-03 -2.410E-07 -1.797E-05
:PTO014:      0    2   -3  2.01675378E-02  7.179E-07  5.323E-05

:ENE  : ********** TOTAL ENERGY IN Ry =       -36944.32108145

       TOTAL FORCE IN mRy/a.u. = |F|     Fx             Fy             Fz     with/without FOR in case.in2
:FOR001:   1.ATOM         12.479          0.000          0.000        -12.479 partial forces
       TOTAL FORCE WITH RESPECT TO GLOBAL CARTESIAN COORDINATES:
:FCA001:   1.ATOM                         0.000        -12.479          0.000 partial forces
       TOTAL FORCE WITH RESPECT TO THE GLOBAL COORDINATE SYSTEM:
:FGL001:   1.ATOM                 0.000000000   -12.479441001     0.000000000 partial forces
 Flat Integration
 New Mode for Coulomb Integral
 Consistent 3/8+Simpson combinations
 Extension of core to zero
 LDM version in phi
 Fifth-order quadrature in outwin


            ---------
:ITE019: 19. ITERATION
            ---------

:NATO :    1 INDEPENDENT AND    2 TOTAL ATOMS IN UNITCELL
       SUBSTANCE: aU                                                          

       LATTICE                      = CXY 
:POT  : POTENTIAL OPTION EX_LDA EC_LDA VX_LDA VC_LDA
:LAT  : LATTICE CONSTANTS=  5.85246 11.87613 10.25291    1.571    1.571    1.571
:VOL  : UNIT CELL VOLUME =     356.31200
       MODE OF CALCULATION IS       = RELA
       NON-SPINPOLARIZED CALCULATION
:IFFT  : FFT-parameters:   48   96   80 Factor: 2.00


   CONVERGENCE PARAMETER FOR PSEUDOCHARGE: NCON=  9
   MAXIMAL VALUE OF RMT(JATOM)*ABSK(NKK) : RK  =27.59714


:VKCOUL :  VK-COUL convergence: 0.186E-06
       ATOMNUMBER=  1 Pr1        VCOUL-ZERO =  0.35949E+00
:EFG001:                        EFG         =    -9.62018   *10**21  V / m**2
                               V20  TOT/SRF=    -8.33132    -0.04821
                               V22  TOT/SRF=    -1.95251    -0.00635
                               V22M TOT/SRF=     0.00000     0.00000
                               V21  TOT/SRF=     0.00000     0.00000
                               V21M TOT/SRF=     0.00000     0.00000

              2.85758    0.00000    0.00000        2.85758    0.00000    0.00000
              0.00000    6.76260    0.00000        0.00000    6.76260    0.00000
              0.00000    0.00000   -9.62018        0.00000    0.00000   -9.62018

         MAIN DIRECTIONS OF THE EFG   1.0000  0.0000  0.0000
                                      0.0000  1.0000  0.0000
                                      0.0000  0.0000  1.0000
:ANG001:  ANGLE WITH OLD X-AXIS =         0.0

:ETA001:                         ASYMM. ETA =     0.40592


     HELLMANN-FEYNMAN-FORCE IN mRy/a.u. = |F|  Fx       Fy             Fz
:FHF001:   1.ATOM   1650.698296956597      0.000000000000      0.000000000000  -1650.698296956597

:FIT001: LUSE= 13 SIGMA OF V-XC FIT FOR ATOM  1  0.5809994E-04
:FIT001: LUSE= 13 SIGMA OF V-XC FIT FOR ATOM  1  0.5809994E-04
:DEN  : DENSITY INTEGRAL  =        -14180.23601777   (Ry)
       ELS_POTENTIAL_AT Z=0 and Z=0.5:   0.87054   0.87054
       ELS_POTENTIAL_AT Y=0 and Y=0.5:   0.03536   0.03536
:VZERO:v0,v0c,v0x   0.20944   0.87054  -0.66110 v5,v5c,v5x   0.20944   0.87054  -0.66110
:VZERY:v0,v0c,v0x  -0.84041   0.03536  -0.87577 v5,v5c,v5x  -0.84041   0.03536  -0.87577
:VZERX:v0,v0c,v0x  -1.21807  -0.39107  -0.82700 v5,v5c,v5x  -1.21807  -0.39107  -0.82700
:LMAX-WF:   10   Non-Spherical LMAX:   4

          ATOMIC SPHERE DEPENDENT PARAMETERS FOR ATOM  Pr1       
:e__0001: OVERALL ENERGY PARAMETER IS    0.6862
          OVERALL BASIS SET ON ATOM IS LAPW
:E0_0001: E( 0)=    0.6862
             APW+lo
:E0_0001: E( 0)=   -1.7521   E(BOTTOM)=   -2.388   E(TOP)=   -1.116  4  5   202
             LOCAL ORBITAL
:E1_0001: E( 1)=    1.0862
             APW+lo
:E1_0001: E( 1)=   -0.2821   E(BOTTOM)=   -1.241   E(TOP)=    0.677  3  4   215
             LOCAL ORBITAL
:E3_0001: E( 3)=    0.8907   E(BOTTOM)=    0.685   E(TOP)=    1.097  0  1   123
             APW+lo
:E2_0001: E( 2)=    0.6862   E(BOTTOM)=    0.498   E(TOP)= -200.000  2 -1   121
             APW+lo

       K=   0.06250   0.00000   0.06250            1
:RKM  : MATRIX SIZE   337LOs:  40  RKM= 8.49  WEIGHT= 4.00  PGR:    
       EIGENVALUES ARE:
:EIG00001:      -1.7510471   -1.7116521   -0.5227727   -0.3666544   -0.3308417
:EIG00006:      -0.3167843   -0.3017184   -0.3015640    0.6833611    0.7671034
:EIG00011:       0.8745670    0.8794818    0.8801704    0.8853904    0.8943751
:EIG00016:       0.9125374    0.9190169    0.9199414    0.9246520    0.9277233
:EIG00021:       0.9361312    0.9380202    0.9386598    0.9526492    0.9751285
:EIG00026:       0.9963623    1.0933554    1.0978817    1.1634432    1.1981698
:EIG00031:       1.2082150    1.3559391    1.3815309    1.4526911    1.7562332
:EIG00036:       1.8039147    1.8403772    1.9376632    2.0509150    2.1195887
:EIG00041:       2.2660359    2.3492798    2.4732122    2.4975525    2.6500525
:EIG00046:       2.6514455    2.6696506    2.8112294    2.8283417    2.9605018
 
:EIG00051:       3.0266952    3.1146892    3.1212358    3.2517040    3.3112120
:EIG00056:       3.3213005    3.3780833    3.5048691    3.5448317    3.6591222
:EIG00061:       3.6710420    3.7893621    3.8526636    3.8780441    3.9218024
:EIG00066:       4.0859656    4.0912152    4.1856521    4.1953824    4.2400401
:EIG00071:       4.2633073    4.3261464    4.3427096    4.4649975    4.4741051
:EIG00076:       4.5100928    4.5424219    4.5896498    4.5956053    4.6541914
:EIG00081:       4.6661598    4.7044426    4.7338837    4.7882650    4.8089453
:EIG00086:       4.9241851    4.9485628    5.0268878    5.0610458    5.1031442
:EIG00091:       5.1134998    5.1411672    5.2008402    5.2346938    5.2358974
:EIG00096:       5.2516461    5.3324830    5.3378663    5.4014211    5.4459219
 
:EIG00101:       5.5304127    5.6439133    5.6937524    5.7640703    5.7698314
:EIG00106:       5.8404807    5.8630147    5.9234184    5.9656745    6.0172582
:EIG00111:       6.1205280    6.1536359    6.2772990    6.3212511    6.3644293
:EIG00116:       6.3853009    6.4759122    6.4931387    6.5518063    6.5697165
:EIG00121:       6.6577477    6.6851672    6.7315811    6.7869790    6.8289657
:EIG00126:       6.8990902    6.9571334    6.9770725    7.0125315    7.0723085
:EIG00131:       7.1342136    7.1565508    7.1697356    7.2660080    7.3253180
:EIG00136:       7.3385760    7.3579991    7.4602660    7.4822253    7.4826453
:EIG00141:       7.5225495    7.5307049    7.5778756    7.6422852    7.6879432
:EIG00146:       7.6926364    7.7314048    7.8286139    7.8374504    7.8906268
 
:EIG00151:       7.9275091    7.9490344    7.9585975    8.1444449    8.1534771
:EIG00156:       8.3064043    8.3232821    8.3407017    8.3720166
       ********************************************************

:KPT   :      NUMBER OF K-POINTS:   288
   0.0   0.0 angle (M,z), angle (M,x) deg
 
        SPIN-ORBIT EIGENVALUES:
     K=   0.06250   0.00000   0.06250            1
      MATRIX SIZE=  318   WEIGHT= 4.00
     EIGENVALUES ARE:
          -1.7510478   -1.7510478   -1.7116526   -1.7116526   -0.5768416
          -0.5768416   -0.4697522   -0.4697522   -0.3690590   -0.3690590
          -0.2565218   -0.2565218   -0.2528181   -0.2528181   -0.2355224
          -0.2355224    0.6834469    0.6834469    0.7669877    0.7669877
           0.8716438    0.8716438    0.8761600    0.8761600    0.8774002
           0.8774002    0.8827796    0.8827797    0.8906738    0.8906738
           0.9029177    0.9029177    0.9139711    0.9139711    0.9234568
           0.9234568    0.9303883    0.9303883    0.9314712    0.9314712

           0.9382851    0.9382851    0.9411582    0.9411582    0.9433426
           0.9433427    0.9561007    0.9561007    0.9765978    0.9765978
           0.9966599    0.9966599    1.0893804    1.0893804    1.1017227
           1.1017227    1.1639248    1.1639248    1.1976737    1.1976737
           1.2090412    1.2090413    1.3558870    1.3558870    1.3818022
           1.3818022    1.4528322    1.4528322    1.7565674    1.7565674
           1.8039559    1.8039559    1.8403630    1.8403630    1.9376570
           1.9376570    2.0506686    2.0506686    2.1190551    2.1190551

           2.2661429    2.2661429    2.3486252    2.3486252    2.4723407
           2.4723407    2.4977659    2.4977659    2.6501256    2.6501256
           2.6515288    2.6515288    2.6688515    2.6688515    2.8089575
           2.8089575    2.8307029    2.8307029    2.9606303    2.9606303
           3.0261363    3.0261363    3.1087489    3.1087489    3.1258364
           3.1258364    3.2514915    3.2514915    3.3098833    3.3098833
           3.3232543    3.3232543    3.3769835    3.3769835    3.5053483
           3.5053483    3.5461490    3.5461490    3.6581223    3.6581223

           3.6725596    3.6725596    3.7932173    3.7932173    3.8533068
           3.8533068    3.8779824    3.8779824    3.9220400    3.9220400
           4.0857187    4.0857187    4.0916977    4.0916977    4.1856608
           4.1856608    4.1953026    4.1953026    4.2401135    4.2401135
           4.2637332    4.2637332    4.3248312    4.3248312    4.3428735
           4.3428735    4.4629074    4.4629074    4.4763467    4.4763467

       ********************************************************
:GAP (global)   :    0.0    Ry =     0.0   eV (metal)
:GAP (this spin):    0.0    Ry =     0.0   eV (metal)
         Bandranges (emin - emax) and occupancy:
:BAN00018:  18    0.676128    0.833051  1.00000000
:BAN00019:  19    0.753338    0.854800  1.00000000
:BAN00020:  20    0.753338    0.854800  1.00000000
:BAN00021:  21    0.776072    0.883500  1.00000000
:BAN00022:  22    0.776072    0.883500  1.00000000
:BAN00023:  23    0.839754    0.888867  0.99481783
:BAN00024:  24    0.839754    0.888867  0.99481781
:BAN00025:  25    0.855448    0.900956  0.70714714
:BAN00026:  26    0.855448    0.900956  0.70714699
:BAN00027:  27    0.875796    0.903914  0.29803519
:BAN00028:  28    0.875796    0.903914  0.29803503
:BAN00029:  29    0.888126    0.907574  0.00000000
:BAN00030:  30    0.888126    0.907574  0.00000000
:BAN00031:  31    0.893760    0.915450  0.00000000
:BAN00032:  32    0.893760    0.915450  0.00000000
:BAN00033:  33    0.905713    0.924236  0.00000000
        Energy to separate low and high energystates:    0.62613


:NOE  : NUMBER OF ELECTRONS          =   26.000

:FER  : F E R M I - ENERGY(TETRAH.M.)=   0.8869701316
:GMA  : POTENTIAL AND CHARGE CUT-OFF  12.00 Ry**.5

:POS001: ATOM   -1 X,Y,Z = 0.00000 0.89750 0.25000  MULT= 2  ZZ= 59.000  Pr1       

       LMMAX 16
       LM=   0 0  1 0  2 0  2 2  3 0  3 2  4 0  4 2  4 4  5 0  5 2  5 4  6 0  6 2  6 4  6 6

:CHA001: TOTAL VALENCE CHARGE INSIDE SPHERE   1 =   9.6415    (RMT=  2.3000 )
:PCS001: PARTIAL CHARGES SPHERE =  1 S,P,D,F,PX,PY,PZ,D-Z2,D-X2Y2,D-XY,D-XZ,D-YZ 
:QTL001: 1.9406 4.9854 0.6939 2.0206 1.6598 1.6574 1.6682 0.1334 0.1240 0.1445 0.1413 0.1508
        Q-s-low E-s-low   Q-p-low E-p-low   Q-d-low E-d-low   Q-f-low E-f-low
:EPL001:  1.8686 -1.7097    4.9078 -0.4009    0.0078 -0.4114    0.0023 -0.4251
        Q-s-hi  E-s-hi    Q-p-hi  E-p-hi    Q-d-hi  E-d-hi    Q-f-hi  E-f-hi 
:EPH001:  0.0719  0.7960    0.0775  0.8270    0.6861  0.8168    2.0183  0.8639

                      VXX         VYY         VZZ       UP TO R
:VZZ001:             2.86664     6.58767    -9.45431       2.300

:CHA  : TOTAL VALENCE CHARGE INSIDE UNIT CELL =      26.000000

:SUM  : SUM OF EIGENVALUES =          -3.318678690


        1.ATOM      Pr1                  14 CORE STATES
       CORE-FORCE in mRy/a.u. = |F|      Fx             Fy             Fz
:FCO001:   1.ATOM   1638.187024249260      0.000000000000      0.000000000000   1638.187024249260

:1S 001: 1S               -3066.704101505 Ry
:2S 001: 2S                -492.458141066 Ry
:2PP001: 2P*               -465.556723018 Ry
:2P 001: 2P                -430.159425381 Ry
:3S 001: 3S                -105.554417064 Ry
:3PP001: 3P*                -94.092009101 Ry
:3P 001: 3P                 -87.084316164 Ry
:3DD001: 3D*                -67.010519988 Ry
:3D 001: 3D                 -65.499042926 Ry
:4S 001: 4S                 -20.225031326 Ry
:4PP001: 4P*                -15.931105143 Ry
:4P 001: 4P                 -14.402708923 Ry
:4DD001: 4D*                 -7.333651530 Ry
:4D 001: 4D                  -7.063898707 Ry
:CINT001 Core Integral Atom   1   45.998501

       DENSITY AT NUCLEUS
        JATOM        VALENCE       SEMI-CORE          CORE           TOTAL
:RTO001:   1      648.406599        0.000000   656825.666588   657474.073187
     
       CHARGES OF NEW CHARGE DENSITY
:NTO   : INTERSTITIAL CHARGE =     6.716901
:NPC   : PW Pseudocharge     =    17.335657
:NTO001: CHARGE SPHERE  1    =    55.640050

:NEC01: NUCLEAR AND ELECTRONIC CHARGE    118.00000   117.99700
     
       CHARGES OF OLD CHARGE DENSITY
:OTO   : INTERSTITIAL CHARGE =     6.714140
:OPC   : PW Pseudocharge     =    17.312275
:OTO001: CHARGE SPHERE  1    =    55.642930

:NEC02: NUCLEAR AND ELECTRONIC CHARGE    118.00000   118.00000
     
       CONVERGENCE TEST
:DTO001: DIFFERENCE IN SPHERE  1 =  0.0068949

:DIS  :  CHARGE DISTANCE       ( 0.0068949 for atom    1 spin 1)      0.0068949
 PW Mixed is          375
 
******************************************************
* MULTISECANT MIXING VER9 RELEASE 10.4.0              *
* Slow Mode, cautious                                *
* Fixed density scale                                *
* Regularization       1.000E-04                     *
* Step Trust Radius    0.75000                       *
* Trust Upper Limit    2.000E+00                     *
* Max Number of Memory Steps   12                    *
******************************************************
 
:PWTMP   2.5438E+02  1.9467E+02  3.5631E+02
:PLANE:  PW TOTAL      5.4957 DISTAN   1.11E-02  2.02E-01 %
:CHARG:  CLM/ATOM   1381.9560 DISTAN   2.36E-02  1.70E-03 %
 
Step History
        DMIX         DMIXT        Red     Pred      Trust     Lambda    MagRel    MagAbs     Beta
  1   3.5000E-02   3.5000E-02 -1.00E+00  1.00E+00 -1.00E+01  1.00E+00  3.50E-02  3.50E-02  1.00E+00
  2   2.5000E-02   2.5000E-02  7.30E-01  1.00E+00 -1.00E+01  1.00E+00  2.50E-02  2.91E-03  1.00E+00
  3   2.0000E-02   2.0000E-02  3.12E-01  3.18E-01  4.55E-01  1.06E+00  1.63E-01  1.38E-02  1.00E+00
  4   1.3174E-02   1.3174E-02 -1.00E+00  9.99E-01  5.69E-01  1.00E+00  1.37E-02  3.63E-04  1.00E+00
:JACOBIANS    8.389E-02   3.402E-01
  
:NORMS:  1/Froebius, Min, Max, Used   0.4186E+00  0.3107E+00  0.6006E+00  0.4663E+00
:INFO :  Number of Memory Steps    3 Skipping    0
:INFO :  SLambda=    1.2587255215  Max    1.2587255215
:PREDicted Charge, CTotal, PW Trust    2.277E-03   4.554E-03   1.651E-02
:PREDicted DMix, Beta, BLim   6.4452E-01  2.7097E+01  7.2126E-01

Eigenvalues, unscaled except for SY+YY
   #     SY Real        SY Imag          SS             YY         SY+YY Real      SY+YY Imag
   1   1.795394E-08   0.000000E+00   4.677443E-01   2.150780E+00   3.799380E-07   0.000000E+00
   2   2.271975E-01   0.000000E+00   5.802878E-02   8.492197E-01   2.546163E+00   0.000000E+00
   3   5.939204E-01   0.000000E+00   1.298858E-09   3.141141E-07   1.487398E+00   0.000000E+00
 
:INFO :  Singular value  2.546E+00 Weight  1.000E+00 Projection -8.685E-03
:INFO :  Singular value  1.487E+00 Weight  1.000E+00 Projection -2.616E-02
:INFO :  Singular value  3.799E-07 Weight  3.121E-06 Projection  3.035E-05
:RANK :  ACTIVE   2.00/3  =  66.67 % ; YY RANK   2.00/3  =  66.67 %
 
:BLIM :  VZERO Control Off
:TRUST:  Step 6.17E-01  Charge 7.50E-02 (e) CTO  2.50E-01 (e) PW  3.50E-01 (e)
:DTRUS:  Lambda    5.793E-02 Increment    3.638E-12 Iterations    98 DMIX    2.812E-02
:INFOA:  Angle SubSpace to MSR1      0.17
:DIRM :  MEMORY  3/12 SCALE   1.000 RED  0.98 PRED  1.00 NEXT  0.46 
:INFO :  Limited by Atoms F by Step T

:TRAVE:  Charge 1.55E-03 (e) CTO  3.10E-03 (e) PW  1.25E-02 (e)
:DIRP :  |MSR1|= 7.521E-03 |PRATT|= 1.108E-02 ANGLE=   1.1 DEGREES
:DIRQ :  |MSR1|= 1.419E-02 |PRATT|= 2.356E-02 ANGLE=   1.7 DEGREES
:DIRT :  |MSR1|= 1.606E-02 |PRATT|= 2.604E-02 ANGLE=   3.2 DEGREES
:MIX  :   MSE1   REGULARIZATION:  2.15E-04 GREED: 0.03294  LMStep 0.85  0.6167 Step           
     
       CHARGES OF MIXED CHARGE DENSITY
:CTO   : INTERSTITIAL CHARGE =     6.717910
:CPC   : PW Pseudocharge     =    17.333612
:CTO001: CHARGE SPHERE  1    =    55.641045

:NEC03: NUCLEAR AND ELECTRONIC CHARGE    118.00000   118.00000

PW CHANGE     H    K    L      Current       Change    Residue
:PTO001:      0    0    0  6.75012957E-02  7.046E-05  1.035E-04
:PTO003:      0    2    0  1.68546727E-02  2.068E-05  2.986E-05
:PTO004:     -1    1    0  8.10866482E-02  1.105E-04  1.610E-04
:PTO005:      0    2   -1 -9.33204207E-02 -1.383E-04 -2.040E-04
:PTO006:      0    0   -2 -4.83580244E-02 -7.117E-05 -1.048E-04
:PTO007:     -1    1   -1 -9.88075516E-02 -1.351E-04 -1.958E-04
:PTO008:      0    2   -2 -1.47995632E-02 -2.038E-05 -2.909E-05
:PTO009:     -1    1   -2 -7.51234153E-02 -1.255E-04 -1.850E-04
:PTO011:     -1    3    0 -1.17215544E-02 -1.307E-05 -1.816E-05
:PTO012:     -1    3   -1 -4.98432413E-02 -9.093E-05 -1.349E-04
:PTO013:      0    4    0 -8.76486888E-03 -1.230E-05 -1.768E-05
:PTO014:      0    2   -3  2.02029923E-02  3.545E-05  5.244E-05

:ENE  : ********** TOTAL ENERGY IN Ry =       -36944.32108484

       TOTAL FORCE IN mRy/a.u. = |F|     Fx             Fy             Fz     with/without FOR in case.in2
:FOR001:   1.ATOM         12.511          0.000          0.000        -12.511 partial forces
       TOTAL FORCE WITH RESPECT TO GLOBAL CARTESIAN COORDINATES:
:FCA001:   1.ATOM                         0.000        -12.511          0.000 partial forces
       TOTAL FORCE WITH RESPECT TO THE GLOBAL COORDINATE SYSTEM:
:FGL001:   1.ATOM                 0.000000000   -12.511272707     0.000000000 partial forces
 Flat Integration
 New Mode for Coulomb Integral
 Consistent 3/8+Simpson combinations
 Extension of core to zero
 LDM version in phi
 Fifth-order quadrature in outwin


            ---------
:ITE020: 20. ITERATION
            ---------

:NATO :    1 INDEPENDENT AND    2 TOTAL ATOMS IN UNITCELL
       SUBSTANCE: aU                                                          

       LATTICE                      = CXY 
:POT  : POTENTIAL OPTION EX_LDA EC_LDA VX_LDA VC_LDA
:LAT  : LATTICE CONSTANTS=  5.85246 11.87613 10.25291    1.571    1.571    1.571
:VOL  : UNIT CELL VOLUME =     356.31200
       MODE OF CALCULATION IS       = RELA
       NON-SPINPOLARIZED CALCULATION
:IFFT  : FFT-parameters:   48   96   80 Factor: 2.00


   CONVERGENCE PARAMETER FOR PSEUDOCHARGE: NCON=  9
   MAXIMAL VALUE OF RMT(JATOM)*ABSK(NKK) : RK  =27.59714


:VKCOUL :  VK-COUL convergence: 0.183E-06
       ATOMNUMBER=  1 Pr1        VCOUL-ZERO =  0.35982E+00
:EFG001:                        EFG         =    -9.55904   *10**21  V / m**2
                               V20  TOT/SRF=    -8.27837    -0.04814
                               V22  TOT/SRF=    -1.90140    -0.00602
                               V22M TOT/SRF=     0.00000     0.00000
                               V21  TOT/SRF=     0.00000     0.00000
                               V21M TOT/SRF=     0.00000     0.00000

              2.87812    0.00000    0.00000        2.87812    0.00000    0.00000
              0.00000    6.68092    0.00000        0.00000    6.68092    0.00000
              0.00000    0.00000   -9.55904        0.00000    0.00000   -9.55904

         MAIN DIRECTIONS OF THE EFG   1.0000  0.0000  0.0000
                                      0.0000  1.0000  0.0000
                                      0.0000  0.0000  1.0000
:ANG001:  ANGLE WITH OLD X-AXIS =         0.0

:ETA001:                         ASYMM. ETA =     0.39782


     HELLMANN-FEYNMAN-FORCE IN mRy/a.u. = |F|  Fx       Fy             Fz
:FHF001:   1.ATOM   1642.095700512294      0.000000000000      0.000000000000  -1642.095700512294

:FIT001: LUSE= 13 SIGMA OF V-XC FIT FOR ATOM  1  0.5656849E-04
:FIT001: LUSE= 13 SIGMA OF V-XC FIT FOR ATOM  1  0.5656849E-04
:DEN  : DENSITY INTEGRAL  =        -14180.24359881   (Ry)
       ELS_POTENTIAL_AT Z=0 and Z=0.5:   0.87112   0.87112
       ELS_POTENTIAL_AT Y=0 and Y=0.5:   0.03539   0.03539
:VZERO:v0,v0c,v0x   0.20990   0.87112  -0.66122 v5,v5c,v5x   0.20990   0.87112  -0.66122
:VZERY:v0,v0c,v0x  -0.84062   0.03539  -0.87601 v5,v5c,v5x  -0.84062   0.03539  -0.87601
:VZERX:v0,v0c,v0x  -1.21870  -0.39149  -0.82721 v5,v5c,v5x  -1.21870  -0.39149  -0.82721
:LMAX-WF:   10   Non-Spherical LMAX:   4

          ATOMIC SPHERE DEPENDENT PARAMETERS FOR ATOM  Pr1       
:e__0001: OVERALL ENERGY PARAMETER IS    0.6867
          OVERALL BASIS SET ON ATOM IS LAPW
:E0_0001: E( 0)=    0.6867
             APW+lo
:E0_0001: E( 0)=   -1.7519   E(BOTTOM)=   -2.388   E(TOP)=   -1.116  4  5   206
             LOCAL ORBITAL
:E1_0001: E( 1)=    1.0867
             APW+lo
:E1_0001: E( 1)=   -0.2819   E(BOTTOM)=   -1.241   E(TOP)=    0.677  3  4   209
             LOCAL ORBITAL
:E3_0001: E( 3)=    0.8911   E(BOTTOM)=    0.685   E(TOP)=    1.097  0  1   123
             APW+lo
:E2_0001: E( 2)=    0.6867   E(BOTTOM)=    0.499   E(TOP)= -200.000  2 -1   123
             APW+lo

       K=   0.06250   0.00000   0.06250            1
:RKM  : MATRIX SIZE   337LOs:  40  RKM= 8.49  WEIGHT= 4.00  PGR:    
       EIGENVALUES ARE:
:EIG00001:      -1.7507946   -1.7113985   -0.5225651   -0.3664069   -0.3305979
:EIG00006:      -0.3164542   -0.3015306   -0.3012296    0.6838330    0.7675128
:EIG00011:       0.8749953    0.8799832    0.8804353    0.8858439    0.8946508
:EIG00016:       0.9130435    0.9195048    0.9204411    0.9251324    0.9280433
:EIG00021:       0.9366215    0.9385086    0.9391260    0.9529301    0.9755357
:EIG00026:       0.9967500    1.0936907    1.0982158    1.1638442    1.1985687
:EIG00031:       1.2085931    1.3563144    1.3818859    1.4529708    1.7567425
:EIG00036:       1.8044072    1.8408404    1.9380369    2.0514505    2.1200367
:EIG00041:       2.2664469    2.3497291    2.4736930    2.4979674    2.6504880
:EIG00046:       2.6518740    2.6700898    2.8116617    2.8287707    2.9609725
 
:EIG00051:       3.0271190    3.1150146    3.1216612    3.2520724    3.3116106
:EIG00056:       3.3216871    3.3785103    3.5052146    3.5452810    3.6595687
:EIG00061:       3.6714502    3.7897426    3.8530593    3.8784288    3.9221963
:EIG00066:       4.0863588    4.0916049    4.1860864    4.1958107    4.2404602
:EIG00071:       4.2637328    4.3265423    4.3431504    4.4654215    4.4745584
:EIG00076:       4.5105288    4.5428609    4.5900708    4.5960015    4.6546170
:EIG00081:       4.6665958    4.7048556    4.7343107    4.7886733    4.8093884
:EIG00086:       4.9246437    4.9489580    5.0273207    5.0614865    5.1035965
:EIG00091:       5.1139174    5.1415968    5.2012398    5.2350766    5.2363112
:EIG00096:       5.2520654    5.3328980    5.3382896    5.4018372    5.4463455
 
:EIG00101:       5.5308197    5.6443178    5.6941529    5.7645120    5.7702683
:EIG00106:       5.8409147    5.8634598    5.9238633    5.9661200    6.0176774
:EIG00111:       6.1209503    6.1540823    6.2777164    6.3216753    6.3648514
:EIG00116:       6.3857159    6.4762945    6.4935553    6.5522241    6.5701326
:EIG00121:       6.6581918    6.6855796    6.7319943    6.7873835    6.8293578
:EIG00126:       6.8995410    6.9575299    6.9775011    7.0129400    7.0727320
:EIG00131:       7.1346471    7.1569812    7.1701326    7.2663821    7.3257475
:EIG00136:       7.3390088    7.3584269    7.4606803    7.4826545    7.4830792
:EIG00141:       7.5230348    7.5311248    7.5783308    7.6426538    7.6883803
:EIG00146:       7.6930398    7.7318176    7.8290523    7.8378408    7.8910817
 
:EIG00151:       7.9279345    7.9494603    7.9589916    8.1448850    8.1539153
:EIG00156:       8.3068345    8.3236913    8.3411170    8.3724404
       ********************************************************

:KPT   :      NUMBER OF K-POINTS:   288
   0.0   0.0 angle (M,z), angle (M,x) deg
 
        SPIN-ORBIT EIGENVALUES:
     K=   0.06250   0.00000   0.06250            1
      MATRIX SIZE=  318   WEIGHT= 4.00
     EIGENVALUES ARE:
          -1.7507953   -1.7507953   -1.7113990   -1.7113990   -0.5766199
          -0.5766199   -0.4694997   -0.4694997   -0.3688026   -0.3688026
          -0.2562214   -0.2562214   -0.2525317   -0.2525317   -0.2352879
          -0.2352879    0.6839187    0.6839187    0.7673971    0.7673971
           0.8720797    0.8720797    0.8766012    0.8766012    0.8777350
           0.8777350    0.8832238    0.8832239    0.8909738    0.8909738
           0.9034047    0.9034047    0.9144266    0.9144266    0.9239442
           0.9239443    0.9308487    0.9308487    0.9318601    0.9318601

           0.9387605    0.9387605    0.9416021    0.9416021    0.9438275
           0.9438275    0.9563988    0.9563988    0.9770094    0.9770094
           0.9970493    0.9970493    1.0897132    1.0897132    1.1020592
           1.1020592    1.1643252    1.1643253    1.1980713    1.1980713
           1.2094207    1.2094209    1.3562621    1.3562621    1.3821575
           1.3821575    1.4531121    1.4531121    1.7570766    1.7570766
           1.8044483    1.8044483    1.8408262    1.8408262    1.9380308
           1.9380308    2.0512040    2.0512040    2.1195032    2.1195032

           2.2665539    2.2665539    2.3490742    2.3490742    2.4728177
           2.4728177    2.4981843    2.4981843    2.6505645    2.6505645
           2.6519537    2.6519537    2.6692911    2.6692911    2.8093888
           2.8093888    2.8311326    2.8311326    2.9611004    2.9611004
           3.0265597    3.0265597    3.1091086    3.1091086    3.1262291
           3.1262291    3.2518601    3.2518601    3.3102808    3.3102808
           3.3236425    3.3236425    3.3774094    3.3774094    3.5056948
           3.5056948    3.5465975    3.5465975    3.6585660    3.6585660

           3.6729692    3.6729692    3.7936003    3.7936003    3.8537017
           3.8537017    3.8783673    3.8783673    3.9224337    3.9224337
           4.0861118    4.0861118    4.0920876    4.0920876    4.1860952
           4.1860952    4.1957309    4.1957309    4.2405335    4.2405335
           4.2641587    4.2641587    4.3252279    4.3252279    4.3433142
           4.3433142    4.4633366    4.4633366    4.4767936    4.4767936

       ********************************************************
:GAP (global)   :    0.0    Ry =     0.0   eV (metal)
:GAP (this spin):    0.0    Ry =     0.0   eV (metal)
         Bandranges (emin - emax) and occupancy:
:BAN00018:  18    0.676600    0.833486  1.00000000
:BAN00019:  19    0.753779    0.855207  1.00000000
:BAN00020:  20    0.753779    0.855207  1.00000000
:BAN00021:  21    0.776510    0.883813  1.00000000
:BAN00022:  22    0.776510    0.883813  1.00000000
:BAN00023:  23    0.840155    0.889325  0.99478632
:BAN00024:  24    0.840155    0.889325  0.99478629
:BAN00025:  25    0.855919    0.901339  0.70759610
:BAN00026:  26    0.855919    0.901339  0.70759604
:BAN00027:  27    0.876231    0.904367  0.29761769
:BAN00028:  28    0.876231    0.904367  0.29761756
:BAN00029:  29    0.888495    0.908076  0.00000000
:BAN00030:  30    0.888495    0.908076  0.00000000
:BAN00031:  31    0.894152    0.915911  0.00000000
:BAN00032:  32    0.894152    0.915911  0.00000000
:BAN00033:  33    0.906139    0.924678  0.00000000
        Energy to separate low and high energystates:    0.62660


:NOE  : NUMBER OF ELECTRONS          =   26.000

:FER  : F E R M I - ENERGY(TETRAH.M.)=   0.8873858425
:GMA  : POTENTIAL AND CHARGE CUT-OFF  12.00 Ry**.5

:POS001: ATOM   -1 X,Y,Z = 0.00000 0.89750 0.25000  MULT= 2  ZZ= 59.000  Pr1       

       LMMAX 16
       LM=   0 0  1 0  2 0  2 2  3 0  3 2  4 0  4 2  4 4  5 0  5 2  5 4  6 0  6 2  6 4  6 6

:CHA001: TOTAL VALENCE CHARGE INSIDE SPHERE   1 =   9.6417    (RMT=  2.3000 )
:PCS001: PARTIAL CHARGES SPHERE =  1 S,P,D,F,PX,PY,PZ,D-Z2,D-X2Y2,D-XY,D-XZ,D-YZ 
:QTL001: 1.9406 4.9855 0.6943 2.0203 1.6598 1.6574 1.6682 0.1335 0.1241 0.1445 0.1413 0.1508
        Q-s-low E-s-low   Q-p-low E-p-low   Q-d-low E-d-low   Q-f-low E-f-low
:EPL001:  1.8686 -1.7095    4.9080 -0.4006    0.0078 -0.4112    0.0023 -0.4249
        Q-s-hi  E-s-hi    Q-p-hi  E-p-hi    Q-d-hi  E-d-hi    Q-f-hi  E-f-hi 
:EPH001:  0.0719  0.7965    0.0775  0.8274    0.6864  0.8172    2.0180  0.8643

                      VXX         VYY         VZZ       UP TO R
:VZZ001:             2.72879     6.82419    -9.55298       2.300

:CHA  : TOTAL VALENCE CHARGE INSIDE UNIT CELL =      26.000000

:SUM  : SUM OF EIGENVALUES =          -3.310351120


        1.ATOM      Pr1                  14 CORE STATES
       CORE-FORCE in mRy/a.u. = |F|      Fx             Fy             Fz
:FCO001:   1.ATOM   1628.256947317198      0.000000000000      0.000000000000   1628.256947317198

:1S 001: 1S               -3066.705361221 Ry
:2S 001: 2S                -492.458932101 Ry
:2PP001: 2P*               -465.557617380 Ry
:2P 001: 2P                -430.160281044 Ry
:3S 001: 3S                -105.554356348 Ry
:3PP001: 3P*                -94.091993402 Ry
:3P 001: 3P                 -87.084258322 Ry
:3DD001: 3D*                -67.010579235 Ry
:3D 001: 3D                 -65.499086612 Ry
:4S 001: 4S                 -20.224505278 Ry
:4PP001: 4P*                -15.930588270 Ry
:4P 001: 4P                 -14.402192569 Ry
:4DD001: 4D*                 -7.333160067 Ry
:4D 001: 4D                  -7.063408867 Ry
:CINT001 Core Integral Atom   1   45.998501

       DENSITY AT NUCLEUS
        JATOM        VALENCE       SEMI-CORE          CORE           TOTAL
:RTO001:   1      648.400280        0.000000   656825.837838   657474.238118
     
       CHARGES OF NEW CHARGE DENSITY
:NTO   : INTERSTITIAL CHARGE =     6.716666
:NPC   : PW Pseudocharge     =    17.336613
:NTO001: CHARGE SPHERE  1    =    55.640167

:NEC01: NUCLEAR AND ELECTRONIC CHARGE    118.00000   117.99700
     
       CHARGES OF OLD CHARGE DENSITY
:OTO   : INTERSTITIAL CHARGE =     6.717910
:OPC   : PW Pseudocharge     =    17.333612
:OTO001: CHARGE SPHERE  1    =    55.641045

:NEC02: NUCLEAR AND ELECTRONIC CHARGE    118.00000   118.00000
     
       CONVERGENCE TEST
:DTO001: DIFFERENCE IN SPHERE  1 =  0.0019121

:DIS  :  CHARGE DISTANCE       ( 0.0019121 for atom    1 spin 1)      0.0019121
 PW Mixed is          375
 
******************************************************
* MULTISECANT MIXING VER9 RELEASE 10.4.0              *
* Slow Mode, cautious                                *
* Fixed density scale                                *
* Regularization       1.000E-04                     *
* Step Trust Radius    0.75000                       *
* Trust Upper Limit    2.000E+00                     *
* Max Number of Memory Steps   12                    *
******************************************************
 
:PWTMP   2.5438E+02  1.9467E+02  3.5631E+02
:PLANE:  PW TOTAL      5.5029 DISTAN   3.84E-03  6.98E-02 %
:CHARG:  CLM/ATOM   1381.9537 DISTAN   1.02E-02  7.39E-04 %
 
Step History
        DMIX         DMIXT        Red     Pred      Trust     Lambda    MagRel    MagAbs     Beta
  1   3.5000E-02   3.5000E-02 -1.00E+00  1.00E+00 -1.00E+01  1.00E+00  3.50E-02  3.50E-02  1.00E+00
  2   2.5000E-02   2.5000E-02  7.30E-01  1.00E+00 -1.00E+01  1.00E+00  2.50E-02  2.91E-03  1.00E+00
  3   2.0000E-02   2.0000E-02  3.12E-01  3.18E-01  4.55E-01  1.06E+00  1.63E-01  1.38E-02  1.00E+00
  4   1.3174E-02   1.3174E-02  9.83E-01  9.99E-01  5.69E-01  1.26E+00  1.37E-02  3.63E-04  1.00E+00
  5   3.2936E-02   2.8116E-02 -1.00E+00  4.57E-01  6.17E-01  1.00E+00  6.17E-01  1.61E-02  1.00E+00
:JACOBIANS    1.203E-01   4.916E-01
  
:NORMS:  1/Froebius, Min, Max, Used   0.5522E+00  0.3460E+00  0.8792E+00  0.6774E+00
:INFO :  Number of Memory Steps    4 Skipping    0
:INFO :  SLambda=    0.4766271933  Max    0.4766271933
:PREDicted Charge, CTotal, PW Trust    2.225E-03   4.451E-03   1.623E-02
[...]
     
       CHARGES OF MIXED CHARGE DENSITY
:CTO   : INTERSTITIAL CHARGE =     6.719715
:CPC   : PW Pseudocharge     =    17.345033
:CTO001: CHARGE SPHERE  1    =    55.640142

:NEC03: NUCLEAR AND ELECTRONIC CHARGE    118.00000   118.00000

PW CHANGE     H    K    L      Current       Change    Residue
:PTO001:      0    0    0  6.75384179E-02 -5.358E-07 -1.706E-06
:PTO003:      0    2    0  1.68717088E-02 -8.013E-07 -2.933E-06
:PTO004:     -1    1    0  8.11510988E-02 -1.055E-06 -3.527E-06
:PTO005:      0    2   -1 -9.33941934E-02  8.861E-07  2.978E-06
:PTO006:      0    0   -2 -4.83958828E-02  4.554E-07  1.472E-06
:PTO007:     -1    1   -1 -9.88783072E-02  8.498E-07  2.286E-06
:PTO008:      0    2   -2 -1.48098917E-02  5.157E-07  1.592E-06
:PTO009:     -1    1   -2 -7.51788875E-02  1.815E-06  4.564E-06
:PTO011:     -1    3    0 -1.17250741E-02  8.583E-08 -1.057E-08
:PTO012:     -1    3   -1 -4.98876082E-02  1.298E-06  3.737E-06
:PTO013:      0    4    0 -8.77044100E-03  1.575E-07  4.308E-07
:PTO014:      0    2   -3  2.02220086E-02 -2.092E-07 -7.644E-07

:ENE  : ********** TOTAL ENERGY IN Ry =       -36944.32108282

       TOTAL FORCE IN mRy/a.u. = |F|     Fx             Fy             Fz     with/without FOR in case.in2
:FOR001:   1.ATOM         13.250          0.000          0.000        -13.250 partial forces
       TOTAL FORCE WITH RESPECT TO GLOBAL CARTESIAN COORDINATES:
:FCA001:   1.ATOM                         0.000        -13.250          0.000 partial forces
       TOTAL FORCE WITH RESPECT TO THE GLOBAL COORDINATE SYSTEM:
:FGL001:   1.ATOM                 0.000000000   -13.250252255     0.000000000 partial forces
 Flat Integration
 New Mode for Coulomb Integral
 Consistent 3/8+Simpson combinations
 Extension of core to zero
 LDM version in phi
 Fifth-order quadrature in outwin


            ---------
:ITE026: 26. ITERATION
            ---------

:NATO :    1 INDEPENDENT AND    2 TOTAL ATOMS IN UNITCELL
       SUBSTANCE: aU                                                          

       LATTICE                      = CXY 
:POT  : POTENTIAL OPTION EX_LDA EC_LDA VX_LDA VC_LDA
:LAT  : LATTICE CONSTANTS=  5.85246 11.87613 10.25291    1.571    1.571    1.571
:VOL  : UNIT CELL VOLUME =     356.31200
       MODE OF CALCULATION IS       = RELA
       NON-SPINPOLARIZED CALCULATION
:IFFT  : FFT-parameters:   48   96   80 Factor: 2.00


   CONVERGENCE PARAMETER FOR PSEUDOCHARGE: NCON=  9
   MAXIMAL VALUE OF RMT(JATOM)*ABSK(NKK) : RK  =27.59714


:VKCOUL :  VK-COUL convergence: 0.181E-06
       ATOMNUMBER=  1 Pr1        VCOUL-ZERO =  0.36003E+00
:EFG001:                        EFG         =    -9.54876   *10**21  V / m**2
                               V20  TOT/SRF=    -8.26947    -0.04809
                               V22  TOT/SRF=    -1.92171    -0.00616
                               V22M TOT/SRF=     0.00000     0.00000
                               V21  TOT/SRF=     0.00000     0.00000
                               V21M TOT/SRF=     0.00000     0.00000

              2.85267    0.00000    0.00000        2.85267    0.00000    0.00000
              0.00000    6.69609    0.00000        0.00000    6.69609    0.00000
              0.00000    0.00000   -9.54876        0.00000    0.00000   -9.54876

         MAIN DIRECTIONS OF THE EFG   1.0000  0.0000  0.0000
                                      0.0000  1.0000  0.0000
                                      0.0000  0.0000  1.0000
:ANG001:  ANGLE WITH OLD X-AXIS =         0.0

:ETA001:                         ASYMM. ETA =     0.40251


     HELLMANN-FEYNMAN-FORCE IN mRy/a.u. = |F|  Fx       Fy             Fz
:FHF001:   1.ATOM   1635.308343791231      0.000000000000      0.000000000000  -1635.308343791231

:FIT001: LUSE= 13 SIGMA OF V-XC FIT FOR ATOM  1  0.5583355E-04
:FIT001: LUSE= 13 SIGMA OF V-XC FIT FOR ATOM  1  0.5583355E-04
:DEN  : DENSITY INTEGRAL  =        -14180.25512642   (Ry)
       ELS_POTENTIAL_AT Z=0 and Z=0.5:   0.87144   0.87144
       ELS_POTENTIAL_AT Y=0 and Y=0.5:   0.03557   0.03557
:VZERO:v0,v0c,v0x   0.21017   0.87144  -0.66127 v5,v5c,v5x   0.21017   0.87144  -0.66127
:VZERY:v0,v0c,v0x  -0.84060   0.03557  -0.87616 v5,v5c,v5x  -0.84060   0.03557  -0.87616
:VZERX:v0,v0c,v0x  -1.21898  -0.39165  -0.82733 v5,v5c,v5x  -1.21898  -0.39165  -0.82733
:LMAX-WF:   10   Non-Spherical LMAX:   4

          ATOMIC SPHERE DEPENDENT PARAMETERS FOR ATOM  Pr1       
:e__0001: OVERALL ENERGY PARAMETER IS    0.6876
          OVERALL BASIS SET ON ATOM IS LAPW
:E0_0001: E( 0)=    0.6876
             APW+lo
:E0_0001: E( 0)=   -1.7517   E(BOTTOM)=   -2.388   E(TOP)=   -1.116  4  5   208
             LOCAL ORBITAL
:E1_0001: E( 1)=    1.0876
             APW+lo
:E1_0001: E( 1)=   -0.2817   E(BOTTOM)=   -1.240   E(TOP)=    0.677  3  4   214
             LOCAL ORBITAL
:E3_0001: E( 3)=    0.8914   E(BOTTOM)=    0.686   E(TOP)=    1.097  0  1   125
             APW+lo
:E2_0001: E( 2)=    0.6876   E(BOTTOM)=    0.499   E(TOP)= -200.000  2 -1   121
             APW+lo

       K=   0.06250   0.00000   0.06250            1
:RKM  : MATRIX SIZE   337LOs:  40  RKM= 8.49  WEIGHT= 4.00  PGR:    
       EIGENVALUES ARE:
:EIG00001:      -1.7506216   -1.7112306   -0.5223405   -0.3662093   -0.3303986
:EIG00006:      -0.3163506   -0.3013220   -0.3011310    0.6840723    0.7677459
:EIG00011:       0.8751809    0.8801552    0.8807448    0.8860583    0.8949485
:EIG00016:       0.9132416    0.9197397    0.9206591    0.9253540    0.9283165
:EIG00021:       0.9368596    0.9386984    0.9392980    0.9532451    0.9757037
:EIG00026:       0.9969196    1.0939285    1.0984393    1.1640403    1.1987566
:EIG00031:       1.2088119    1.3565359    1.3820829    1.4531917    1.7569822
:EIG00036:       1.8046427    1.8410955    1.9382441    2.0516849    2.1202957
:EIG00041:       2.2666918    2.3499642    2.4739006    2.4982004    2.6507082
:EIG00046:       2.6521081    2.6703367    2.8118826    2.8290148    2.9611862
 
:EIG00051:       3.0273208    3.1152627    3.1218710    3.2522875    3.3118106
:EIG00056:       3.3218896    3.3787324    3.5053790    3.5454788    3.6597931
:EIG00061:       3.6716609    3.7899548    3.8532860    3.8786270    3.9223866
:EIG00066:       4.0865521    4.0918454    4.1862922    4.1960466    4.2406496
:EIG00071:       4.2639266    4.3267366    4.3433545    4.4656392    4.4747744
:EIG00076:       4.5107594    4.5430551    4.5902809    4.5962225    4.6548423
:EIG00081:       4.6667917    4.7050834    4.7345056    4.7888938    4.8096093
:EIG00086:       4.9248813    4.9491830    5.0275314    5.0616746    5.1038325
:EIG00091:       5.1141372    5.1418154    5.2014125    5.2352511    5.2365417
:EIG00096:       5.2523024    5.3331363    5.3385136    5.4020436    5.4465627
 
:EIG00101:       5.5310337    5.6445359    5.6943722    5.7647327    5.7705010
:EIG00106:       5.8411189    5.8636819    5.9241061    5.9663423    6.0178898
:EIG00111:       6.1211645    6.1542950    6.2779132    6.3218932    6.3650468
:EIG00116:       6.3858840    6.4764868    6.4937613    6.5524331    6.5703023
:EIG00121:       6.6583729    6.6857765    6.7321812    6.7875951    6.8295809
:EIG00126:       6.8997561    6.9577489    6.9777142    7.0131408    7.0729476
:EIG00131:       7.1348521    7.1571796    7.1703525    7.2665730    7.3259382
:EIG00136:       7.3392241    7.3586430    7.4608673    7.4828586    7.4832847
:EIG00141:       7.5232518    7.5313231    7.5785466    7.6428664    7.6885924
:EIG00146:       7.6932063    7.7320003    7.8292579    7.8380593    7.8912934
 
:EIG00151:       7.9281133    7.9496773    7.9591250    8.1450896    8.1541327
:EIG00156:       8.3070405    8.3239031    8.3413184    8.3726406
       ********************************************************

:KPT   :      NUMBER OF K-POINTS:   288
   0.0   0.0 angle (M,z), angle (M,x) deg
 
        SPIN-ORBIT EIGENVALUES:
     K=   0.06250   0.00000   0.06250            1
      MATRIX SIZE=  318   WEIGHT= 4.00
     EIGENVALUES ARE:
          -1.7506223   -1.7506223   -1.7112311   -1.7112311   -0.5764129
          -0.5764129   -0.4693300   -0.4693300   -0.3686148   -0.3686148
          -0.2560846   -0.2560846   -0.2523780   -0.2523780   -0.2351105
          -0.2351105    0.6841580    0.6841580    0.7676302    0.7676302
           0.8722669    0.8722669    0.8768110    0.8768110    0.8780043
           0.8780043    0.8834454    0.8834455    0.8912617    0.8912617
           0.9036180    0.9036180    0.9146598    0.9146598    0.9241599
           0.9241599    0.9310727    0.9310727    0.9321099    0.9321099

           0.9389663    0.9389663    0.9418016    0.9418016    0.9440413
           0.9440413    0.9567061    0.9567061    0.9771782    0.9771782
           0.9972193    0.9972193    1.0899461    1.0899461    1.1022875
           1.1022875    1.1645217    1.1645218    1.1982606    1.1982606
           1.2096379    1.2096380    1.3564836    1.3564836    1.3823545
           1.3823545    1.4533330    1.4533330    1.7573163    1.7573163
           1.8046839    1.8046839    1.8410813    1.8410813    1.9382380
           1.9382380    2.0514383    2.0514383    2.1197621    2.1197621

           2.2667987    2.2667987    2.3493093    2.3493093    2.4730267
           2.4730267    2.4984161    2.4984161    2.6507835    2.6507835
           2.6521893    2.6521893    2.6695372    2.6695372    2.8096132
           2.8096132    2.8313733    2.8313733    2.9613142    2.9613142
           3.0267620    3.0267620    3.1093430    3.1093430    3.1264518
           3.1264518    3.2520751    3.2520751    3.3104812    3.3104812
           3.3238453    3.3238453    3.3776309    3.3776309    3.5058598
           3.5058598    3.5467954    3.5467954    3.6587894    3.6587894

           3.6731804    3.6731804    3.7938133    3.7938133    3.8539279
           3.8539279    3.8785654    3.8785654    3.9226240    3.9226240
           4.0863079    4.0863079    4.0923254    4.0923254    4.1863012
           4.1863012    4.1959665    4.1959665    4.2407231    4.2407231
           4.2643526    4.2643526    4.3254225    4.3254225    4.3435181
           4.3435181    4.4635549    4.4635549    4.4770095    4.4770095

       ********************************************************
:GAP (global)   :    0.0    Ry =     0.0   eV (metal)
:GAP (this spin):    0.0    Ry =     0.0   eV (metal)
         Bandranges (emin - emax) and occupancy:
:BAN00018:  18    0.676840    0.833709  1.00000000
:BAN00019:  19    0.753998    0.855456  1.00000000
:BAN00020:  20    0.753998    0.855456  1.00000000
:BAN00021:  21    0.776725    0.884090  1.00000000
:BAN00022:  22    0.776725    0.884090  1.00000000
:BAN00023:  23    0.840349    0.889517  0.99485734
:BAN00024:  24    0.840349    0.889517  0.99485732
:BAN00025:  25    0.856110    0.901588  0.70768408
:BAN00026:  26    0.856110    0.901588  0.70768396
:BAN00027:  27    0.876457    0.904596  0.29745874
:BAN00028:  28    0.876457    0.904596  0.29745856
:BAN00029:  29    0.888756    0.908289  0.00000000
:BAN00030:  30    0.888756    0.908289  0.00000000
:BAN00031:  31    0.894413    0.916109  0.00000000
:BAN00032:  32    0.894413    0.916109  0.00000000
:BAN00033:  33    0.906361    0.924911  0.00000000
        Energy to separate low and high energystates:    0.62684


:NOE  : NUMBER OF ELECTRONS          =   26.000

:FER  : F E R M I - ENERGY(TETRAH.M.)=   0.8876198089
:GMA  : POTENTIAL AND CHARGE CUT-OFF  12.00 Ry**.5

:POS001: ATOM   -1 X,Y,Z = 0.00000 0.89750 0.25000  MULT= 2  ZZ= 59.000  Pr1       

       LMMAX 16
       LM=   0 0  1 0  2 0  2 2  3 0  3 2  4 0  4 2  4 4  5 0  5 2  5 4  6 0  6 2  6 4  6 6

:CHA001: TOTAL VALENCE CHARGE INSIDE SPHERE   1 =   9.6416    (RMT=  2.3000 )
:PCS001: PARTIAL CHARGES SPHERE =  1 S,P,D,F,PX,PY,PZ,D-Z2,D-X2Y2,D-XY,D-XZ,D-YZ 
:QTL001: 1.9406 4.9855 0.6944 2.0201 1.6598 1.6574 1.6682 0.1335 0.1242 0.1445 0.1414 0.1508
        Q-s-low E-s-low   Q-p-low E-p-low   Q-d-low E-d-low   Q-f-low E-f-low
:EPL001:  1.8686 -1.7093    4.9080 -0.4005    0.0078 -0.4110    0.0023 -0.4247
        Q-s-hi  E-s-hi    Q-p-hi  E-p-hi    Q-d-hi  E-d-hi    Q-f-hi  E-f-hi 
:EPH001:  0.0719  0.7967    0.0775  0.8276    0.6865  0.8174    2.0178  0.8645

                      VXX         VYY         VZZ       UP TO R
:VZZ001:             2.82187     6.66348    -9.48534       2.300

:CHA  : TOTAL VALENCE CHARGE INSIDE UNIT CELL =      26.000000

:SUM  : SUM OF EIGENVALUES =          -3.305298777


        1.ATOM      Pr1                  14 CORE STATES
       CORE-FORCE in mRy/a.u. = |F|      Fx             Fy             Fz
:FCO001:   1.ATOM   1621.830480639776      0.000000000000      0.000000000000   1621.830480639776

:1S 001: 1S               -3066.705626875 Ry
:2S 001: 2S                -492.459102087 Ry
:2PP001: 2P*               -465.557809824 Ry
:2P 001: 2P                -430.160465080 Ry
:3S 001: 3S                -105.554299720 Ry
:3PP001: 3P*                -94.091949445 Ry
:3P 001: 3P                 -87.084201470 Ry
:3DD001: 3D*                -67.010557974 Ry
:3D 001: 3D                 -65.499060859 Ry
:4S 001: 4S                 -20.224249614 Ry
:4PP001: 4P*                -15.930333885 Ry
:4P 001: 4P                 -14.401935114 Ry
:4DD001: 4D*                 -7.332909041 Ry
:4D 001: 4D                  -7.063157667 Ry
:CINT001 Core Integral Atom   1   45.998501

       DENSITY AT NUCLEUS
        JATOM        VALENCE       SEMI-CORE          CORE           TOTAL
:RTO001:   1      648.397792        0.000000   656825.889232   657474.287025
     
       CHARGES OF NEW CHARGE DENSITY
:NTO   : INTERSTITIAL CHARGE =     6.716707
:NPC   : PW Pseudocharge     =    17.336877
:NTO001: CHARGE SPHERE  1    =    55.640146

:NEC01: NUCLEAR AND ELECTRONIC CHARGE    118.00000   117.99700
     
       CHARGES OF OLD CHARGE DENSITY
:OTO   : INTERSTITIAL CHARGE =     6.719715
:OPC   : PW Pseudocharge     =    17.345033
:OTO001: CHARGE SPHERE  1    =    55.640142

:NEC02: NUCLEAR AND ELECTRONIC CHARGE    118.00000   118.00000
     
       CONVERGENCE TEST
:DTO001: DIFFERENCE IN SPHERE  1 =  0.0000795

:DIS  :  CHARGE DISTANCE       ( 0.0000795 for atom    1 spin 1)      0.0000795
 PW Mixed is          375
 
******************************************************
* MULTISECANT MIXING VER9 RELEASE 10.4.0              *
* Standard Mode with controls                        *
* Fixed density scale                                *
* Regularization       1.000E-04                     *
* Trust Upper Limit    5.000E+00                     *
* Max Number of Memory Steps    8                    *
******************************************************
 
:PWTMP   2.5438E+02  1.9467E+02  3.5631E+02
:PLANE:  PW TOTAL      5.5068 DISTAN   1.45E-04  2.63E-03 %
:CHARG:  CLM/ATOM   1381.9531 DISTAN   1.99E-04  1.44E-05 %
 
Step History
        DMIX         DMIXT        Red     Pred      Trust     Lambda    MagRel    MagAbs     Beta
  3   2.0000E-02   2.0000E-02  3.12E-01  3.18E-01  4.55E-01  1.06E+00  1.63E-01  1.38E-02  1.00E+00
  4   1.3174E-02   1.3174E-02  9.83E-01  9.99E-01  5.69E-01  1.26E+00  1.37E-02  3.63E-04  1.00E+00
  5   3.2936E-02   2.8116E-02  4.19E-01  4.57E-01  6.17E-01  4.77E-01  6.17E-01  1.61E-02  1.00E+00
  6   1.8006E-02   1.8006E-02  9.18E-01  9.81E-01  7.71E-01  2.67E-01  2.62E-01  2.86E-03  1.00E+00
  7   4.5014E-02   4.5014E-02  3.19E-01  3.42E-01  8.40E-01  1.10E-01  4.84E-01  4.85E-03  1.00E+00
  8   2.9133E-02   2.9133E-02  9.56E-01  1.00E+00  1.12E+00  1.00E+00  2.91E-02  9.30E-05  9.93E-01
  9   7.2832E-02   7.2832E-02  2.16E-01  2.80E-01  1.17E+00  2.26E-01  6.81E-01  2.08E-03  1.00E+00
 10   3.8538E-02   3.8538E-02  8.93E-01  9.99E-01  1.56E+00  1.00E+00  6.36E-02  4.18E-05  1.00E+00
 11   9.6346E-02   9.6346E-02 -1.00E+00  5.16E-01  1.75E+00  1.00E+00  3.86E-01  2.27E-04  1.00E+00
:JACOBIANS    2.821E-01   1.853E+00
  
:NORMS:  1/Froebius, Min, Max, Used   0.7242E+00  0.3908E+00  0.9916E+00  0.9611E+00
:INFO :  Number of Memory Steps    8 Skipping    2
:INFO :  SLambda=    0.4155405164  Max    0.4155405164
:PREDicted Charge, CTotal, PW Trust    1.846E-06   3.693E-06   1.477E-04
:PREDicted DMix, Beta, BLim   8.5952E-02  1.0808E+00  1.6086E+00

Eigenvalues, unscaled except for SY+YY
   #     SY Real        SY Imag          SS             YY         SY+YY Real      SY+YY Imag
   1   3.064812E+00   0.000000E+00   3.010737E+00   3.259221E+00   4.519713E+00   0.000000E+00
   2   1.380591E+00   0.000000E+00   9.633399E-01   2.218828E+00   2.756309E+00   0.000000E+00
   3   4.819988E-01   0.000000E+00   1.791210E-01   1.536247E+00   1.776750E+00   0.000000E+00
   4   2.062744E-01   0.000000E+00   4.197666E-02   9.843111E-01   1.079079E+00   0.000000E+00
   5   1.847372E-04   0.000000E+00   5.997267E-05   1.303350E-03   1.381254E-03   0.000000E+00
   6   3.327798E-05   0.000000E+00   7.428757E-06   8.878541E-05   1.079917E-04   0.000000E+00
   7   5.715885E-10   0.000000E+00   3.230085E-10   2.409376E-08   4.259391E-09   0.000000E+00
   8   1.729894E-09   0.000000E+00   2.154616E-11   3.774317E-09   2.416852E-08   0.000000E+00
 
:INFO :  Singular value  4.520E+00 Weight  1.000E+00 Projection  4.899E-06
:INFO :  Singular value  2.756E+00 Weight  1.000E+00 Projection -1.535E-05
:INFO :  Singular value  1.777E+00 Weight  1.000E+00 Projection -2.531E-05
:INFO :  Singular value  1.079E+00 Weight  1.000E+00 Projection  2.941E-06
:INFO :  Singular value  1.381E-03 Weight  9.473E-01 Projection  1.660E-03
:INFO :  Singular value  1.080E-04 Weight  9.893E-02 Projection  2.374E-03
:INFO :  Singular value  2.417E-08 Weight  5.501E-09 Projection  1.641E-09
:INFO :  Singular value  4.259E-09 Weight  1.707E-10 Projection  1.529E-10
:RANK :  ACTIVE   5.05/8  =  63.08 % ; YY RANK   5.01/8  =  62.63 %
 
:BLIM :  VZERO Control Off
:TRUST:  Step 2.33E+00  Charge 1.62E-02 (e) CTO  5.40E-02 (e) PW  7.56E-02 (e)
:DIRM :  MEMORY  8/8  SCALE   1.000 RED  0.42 PRED  0.52 NEXT  0.90 
:TRAVE:  Charge 2.63E-05 (e) CTO  5.26E-05 (e) PW  2.69E-04 (e)
:DIRP :  |MSR1|= 3.415E-05 |PRATT|= 1.448E-04 ANGLE=   2.2 DEGREES
:DIRQ :  |MSR1|= 3.942E-05 |PRATT|= 1.991E-04 ANGLE=  22.8 DEGREES
:DIRT :  |MSR1|= 5.215E-05 |PRATT|= 2.462E-04 ANGLE=  18.5 DEGREES
:MIX  :   MSD1   REGULARIZATION:  3.26E-04 GREED: 0.07839  Newton 1.00  0.2118                
     
       CHARGES OF MIXED CHARGE DENSITY
:CTO   : INTERSTITIAL CHARGE =     6.719715
:CPC   : PW Pseudocharge     =    17.344935
:CTO001: CHARGE SPHERE  1    =    55.640143

:NEC03: NUCLEAR AND ELECTRONIC CHARGE    118.00000   118.00000

PW CHANGE     H    K    L      Current       Change    Residue
:PTO001:      0    0    0  6.75381406E-02 -2.773E-07 -1.180E-06
:PTO003:      0    2    0  1.68714799E-02 -2.290E-07 -9.707E-07
:PTO004:     -1    1    0  8.11505911E-02 -5.077E-07 -2.048E-06
:PTO005:      0    2   -1 -9.33936321E-02  5.613E-07  2.379E-06
:PTO006:      0    0   -2 -4.83955727E-02  3.101E-07  1.364E-06
:PTO007:     -1    1   -1 -9.88777343E-02  5.729E-07  2.346E-06
:PTO008:      0    2   -2 -1.48097371E-02  1.546E-07  5.908E-07
:PTO009:     -1    1   -2 -7.51781699E-02  7.176E-07  3.077E-06
:PTO011:     -1    3    0 -1.17250060E-02  6.804E-08  2.741E-07
:PTO012:     -1    3   -1 -4.98871191E-02  4.891E-07  2.067E-06
:PTO013:      0    4    0 -8.77036565E-03  7.535E-08  3.212E-07
:PTO014:      0    2   -3  2.02218448E-02 -1.639E-07 -7.659E-07

:ENE  : ********** TOTAL ENERGY IN Ry =       -36944.32108274

       TOTAL FORCE IN mRy/a.u. = |F|     Fx             Fy             Fz     with/without FOR in case.in2
:FOR001:   1.ATOM         13.478          0.000          0.000        -13.478 partial forces
       TOTAL FORCE WITH RESPECT TO GLOBAL CARTESIAN COORDINATES:
:FCA001:   1.ATOM                         0.000        -13.478          0.000 partial forces
       TOTAL FORCE WITH RESPECT TO THE GLOBAL COORDINATE SYSTEM:
:FGL001:   1.ATOM                 0.000000000   -13.477863151     0.000000000 partial forces
