
:LABEL1: Calculations in /home/ykent/GWIEN/example/Pr/aU/V9/case
:LABEL2: on didymium-2.cmpgroup.ameslab.gov at Fri Jul 10 13:23:19 CDT 2020
:LABEL3: using WIEN2k_19.1 (Release 25/6/2019) in /home/ykent/opt/src/WIEN2k_19.1
:LABEL4: using the command: run_lapw -cc 0.0001
 Flat Integration
 New Mode for Coulomb Integral
 Consistent 3/8+Simpson combinations
 Extension of core to zero
 LDM version in phi
 Fifth-order quadrature in outwin


            ---------
:ITE001:  1. ITERATION
            ---------

:NATO :    1 INDEPENDENT AND    2 TOTAL ATOMS IN UNITCELL
       SUBSTANCE: aU                                                          

       LATTICE                      = CXY 
:POT  : POTENTIAL OPTION EX_LDA EC_LDA VX_LDA VC_LDA
:LAT  : LATTICE CONSTANTS=  5.76241 11.69339 10.09514    1.571    1.571    1.571
:VOL  : UNIT CELL VOLUME =     340.11595
       MODE OF CALCULATION IS       = RELA
       NON-SPINPOLARIZED CALCULATION
:IFFT  : FFT-parameters:   48   96   80 Factor: 2.00


   CONVERGENCE PARAMETER FOR PSEUDOCHARGE: NCON=  9
   MAXIMAL VALUE OF RMT(JATOM)*ABSK(NKK) : RK  =27.59891


:VKCOUL :  VK-COUL convergence: 0.191E-06
       ATOMNUMBER=  1 Pr1        VCOUL-ZERO =  0.39732E+00
:EFG001:                        EFG         =    -0.05456   *10**21  V / m**2
                               V20  TOT/SRF=    -0.04725    -0.05795
                               V22  TOT/SRF=     0.00762     0.00904
                               V22M TOT/SRF=     0.00000     0.00000
                               V21  TOT/SRF=     0.00000     0.00000
                               V21M TOT/SRF=     0.00000     0.00000

              0.03490    0.00000    0.00000        0.03490    0.00000    0.00000
              0.00000    0.01966    0.00000        0.00000    0.01966    0.00000
              0.00000    0.00000   -0.05456        0.00000    0.00000   -0.05456

         MAIN DIRECTIONS OF THE EFG   1.0000  0.0000  0.0000
                                      0.0000  1.0000  0.0000
                                      0.0000  0.0000  1.0000
:ANG001:  ANGLE WITH OLD X-AXIS =         0.0

:ETA001:                         ASYMM. ETA =     0.27946


     HELLMANN-FEYNMAN-FORCE IN mRy/a.u. = |F|  Fx       Fy             Fz
:FHF001:   1.ATOM    608.210949533768      0.000000000000      0.000000000000   -608.210949533768

:FIT001: LUSE= 13 SIGMA OF V-XC FIT FOR ATOM  1  0.1041697E-04
:FIT001: LUSE= 13 SIGMA OF V-XC FIT FOR ATOM  1  0.1041697E-04
:DEN  : DENSITY INTEGRAL  =        -14198.63779052   (Ry)
       ELS_POTENTIAL_AT Z=0 and Z=0.5:   0.87442   0.87442
       ELS_POTENTIAL_AT Y=0 and Y=0.5:   0.01122   0.01122
:VZERO:v0,v0c,v0x   0.20151   0.87442  -0.67291 v5,v5c,v5x   0.20151   0.87442  -0.67291
:VZERY:v0,v0c,v0x  -0.87256   0.01122  -0.88379 v5,v5c,v5x  -0.87256   0.01122  -0.88379
:VZERX:v0,v0c,v0x  -1.21144  -0.38167  -0.82977 v5,v5c,v5x  -1.21144  -0.38167  -0.82977
:LMAX-WF:   10   Non-Spherical LMAX:   4

          ATOMIC SPHERE DEPENDENT PARAMETERS FOR ATOM  Pr1       
:e__0001: OVERALL ENERGY PARAMETER IS    0.3000
          OVERALL BASIS SET ON ATOM IS LAPW
:E0_0001: E( 0)=    0.3000
             APW+lo
:E0_0001: E( 0)=   -1.6543   E(BOTTOM)=   -2.301   E(TOP)=   -1.007  4  5   214
             LOCAL ORBITAL
:E1_0001: E( 1)=    0.7000
             APW+lo
:E1_0001: E( 1)=   -0.1910   E(BOTTOM)=   -1.163   E(TOP)=    0.781  3  4   216
             LOCAL ORBITAL
:E3_0001: E( 3)=    0.8062   E(BOTTOM)=    0.806   E(TOP)= -200.000  0 -1   110
             APW+lo
:E2_0001: E( 2)=    0.5687   E(BOTTOM)=    0.569   E(TOP)= -200.000  2 -1   101
             APW+lo

       K=   0.06250   0.00000   0.06250            1
:RKM  : MATRIX SIZE   323LOs:  40  RKM= 8.47  WEIGHT= 4.00  PGR:    
       EIGENVALUES ARE:
:EIG00001:      -1.6661960   -1.6172491   -0.4690713   -0.2800577   -0.2383299
:EIG00006:      -0.2248276   -0.2102414   -0.2064216    0.7379037    0.8092145
:EIG00011:       0.9549890    0.9862684    0.9889973    0.9916106    1.0080040
:EIG00016:       1.0369706    1.0373605    1.0449478    1.0471039    1.0530943
:EIG00021:       1.0592015    1.0622019    1.0697436    1.0897087    1.0940260
:EIG00026:       1.1017809    1.1650560    1.1703222    1.2343850    1.2711123
:EIG00031:       1.2877687    1.4416046    1.4653139    1.5425272    1.8423590
:EIG00036:       1.8916414    1.9246892
       ********************************************************

:KPT   :      NUMBER OF K-POINTS:   288
:GAP (global)   :    0.0    Ry =     0.0   eV (metal)
         Bandranges (emin - emax) and occupancy:
:BAN00005:   5   -0.402751   -0.238330  2.00000000
:BAN00006:   6   -0.372986   -0.214770  2.00000000
:BAN00007:   7   -0.331703   -0.207820  2.00000000
:BAN00008:   8   -0.255452   -0.197177  2.00000000
:BAN00009:   9    0.730123    0.894117  2.00000000
:BAN00010:  10    0.790171    0.928809  2.00000000
:BAN00011:  11    0.817642    0.991517  2.00000000
:BAN00012:  12    0.896032    1.002980  1.99876479
:BAN00013:  13    0.929797    1.031664  1.52303447
:BAN00014:  14    0.970384    1.036801  0.47797335
:BAN00015:  15    1.000742    1.046907  0.00022740
:BAN00016:  16    1.011816    1.048356  0.00000000
:BAN00017:  17    1.030273    1.051733  0.00000000
:BAN00018:  18    1.035951    1.054797  0.00000000
:BAN00019:  19    1.042882    1.062825  0.00000000
:BAN00020:  20    1.046825    1.063794  0.00000000
        Energy to separate low and high energystates:    0.68012


:NOE  : NUMBER OF ELECTRONS          =   26.000

:FER  : F E R M I - ENERGY(TETRAH.M.)=   1.0009685585
:GMA  : POTENTIAL AND CHARGE CUT-OFF  12.00 Ry**.5

:POS001: ATOM   -1 X,Y,Z = 0.00000 0.89750 0.25000  MULT= 2  ZZ= 59.000  Pr1       

       LMMAX 16
       LM=   0 0  1 0  2 0  2 2  3 0  3 2  4 0  4 2  4 4  5 0  5 2  5 4  6 0  6 2  6 4  6 6

:CHA001: TOTAL VALENCE CHARGE INSIDE SPHERE   1 =   9.1085    (RMT=  2.3000 )
:PCS001: PARTIAL CHARGES SPHERE =  1 S,P,D,F,PX,PY,PZ,D-Z2,D-X2Y2,D-XY,D-XZ,D-YZ 
:QTL001: 1.9497 4.9850 0.9579 1.2142 1.6570 1.6570 1.6710 0.1894 0.1984 0.1827 0.1916 0.1958
        Q-s-low E-s-low   Q-p-low E-p-low   Q-d-low E-d-low   Q-f-low E-f-low
:EPL001:  1.8632 -1.6145    4.8599 -0.3162    0.0106 -0.3610    0.0030 -0.3702
        Q-s-hi  E-s-hi    Q-p-hi  E-p-hi    Q-d-hi  E-d-hi    Q-f-hi  E-f-hi 
:EPH001:  0.0864  0.8651    0.1251  0.9062    0.9473  0.8899    1.2111  0.9590

                      VXX         VYY         VZZ       UP TO R
:VZZ001:             5.16730     6.94801   -12.11531       2.300

:CHA  : TOTAL VALENCE CHARGE INSIDE UNIT CELL =      26.000000

:SUM  : SUM OF EIGENVALUES =          -1.269449675


        1.ATOM      Pr1                  14 CORE STATES
       CORE-FORCE in mRy/a.u. = |F|      Fx             Fy             Fz
:FCO001:   1.ATOM    491.619999395068      0.000000000000      0.000000000000    491.619999395068

:1S 001: 1S               -3066.503993907 Ry
:2S 001: 2S                -492.269840224 Ry
:2PP001: 2P*               -465.367428770 Ry
:2P 001: 2P                -429.970642861 Ry
:3S 001: 3S                -105.368382814 Ry
:3PP001: 3P*                -93.905728378 Ry
:3P 001: 3P                 -86.898443155 Ry
:3DD001: 3D*                -66.824579073 Ry
:3D 001: 3D                 -65.313182523 Ry
:4S 001: 4S                 -20.058889180 Ry
:4PP001: 4P*                -15.766354367 Ry
:4P 001: 4P                 -14.240016082 Ry
:4DD001: 4D*                 -7.175370509 Ry
:4D 001: 4D                  -6.906393562 Ry
:CINT001 Core Integral Atom   1   45.998418

       DENSITY AT NUCLEUS
        JATOM        VALENCE       SEMI-CORE          CORE           TOTAL
:RTO001:   1      647.436492        0.000000   656819.576671   657467.013164
     
       CHARGES OF NEW CHARGE DENSITY
:NTO   : INTERSTITIAL CHARGE =     7.783006
:NPC   : PW Pseudocharge     =    17.836449
:NTO001: CHARGE SPHERE  1    =    55.106914

:NEC01: NUCLEAR AND ELECTRONIC CHARGE    118.00000   117.99684
     
       CHARGES OF OLD CHARGE DENSITY
:OTO   : INTERSTITIAL CHARGE =     6.519699
:OPC   : PW Pseudocharge     =    16.170624
:OTO001: CHARGE SPHERE  1    =    55.740778

:NEC02: NUCLEAR AND ELECTRONIC CHARGE    118.00000   118.00126
     
       CONVERGENCE TEST
:DTO001: DIFFERENCE IN SPHERE  1 =  1.1120130

:DIS  :  CHARGE DISTANCE       ( 1.1120130 for atom    1 spin 1)      1.1120130
 PW Mixed is          360
 
******************************************************
* MULTISECANT MIXING VER9 RELEASE 10.4.0              *
* Standard Mode with controls                        *
* Fixed density scale                                *
* Regularization       1.000E-04                     *
* Trust Upper Limit    5.000E+00                     *
* Max Number of Memory Steps    8                    *
******************************************************
 
:PWTMP   2.3819E+02  1.9467E+02  3.4012E+02
:PLANE:  PW TOTAL      5.1250 DISTAN   6.99E-01  1.36E+01 %
:CHARG:  CLM/ATOM   1382.0544 DISTAN   1.61E+00  1.16E-01 %
INFO: Reducing dbase  2.50000E-02 1.11201E+00 2.37075E-02
 
Step History
        DMIX         DMIXT        Red     Pred      Trust     Lambda    MagRel    MagAbs     Beta
  1   3.5000E-02   3.5000E-02 -1.00E+00  1.00E+00 -1.00E+01  1.00E+00  3.50E-02  3.50E-02  1.00E+00
:INFO :  Note, Pratt in use
INFO: Reducing dbase  2.37075E-02 1.11201E+00 2.24818E-02
:TRUST:  Step 3.75E-02  Charge 7.50E-02 (e) CTO  2.50E-01 (e) PW  3.50E-01 (e)
:DIRM :  MEMORY  0/ 8 SCALE   1.000
Performing Pseudo Compensation
Final Pseudo Compensation Rescaling     1.00000E+00
:MIX  :   PRATT  REGULARIZATION:  1.00E-04 GREED: 0.02500                  
     
       CHARGES OF MIXED CHARGE DENSITY
:CTO   : INTERSTITIAL CHARGE =     6.550137
:CPC   : PW Pseudocharge     =    17.080746
:CTO001: CHARGE SPHERE  1    =    55.724931

:NEC03: NUCLEAR AND ELECTRONIC CHARGE    118.00000   118.00000

PW CHANGE     H    K    L      Current       Change    Residue
:PTO001:      0    0    0  6.94789054E-02  2.778E-03  8.656E-03
:PTO003:      0    2    0  1.67193445E-02  1.205E-03  2.471E-03
:PTO004:     -1    1    0  8.04829345E-02  6.381E-03  9.217E-03
:PTO005:      0    2   -1 -9.33918746E-02 -7.519E-03 -9.100E-03
:PTO006:      0    0   -2 -4.84381300E-02 -3.904E-03 -4.513E-03
:PTO007:     -1    1   -1 -9.88939836E-02 -8.765E-03 -8.610E-03
:PTO008:      0    2   -2 -1.50431271E-02 -1.714E-03 -1.541E-03
:PTO009:     -1    1   -2 -7.32178921E-02 -9.224E-03 -9.354E-03
:PTO011:     -1    3    0 -1.08890369E-02 -1.744E-03 -1.977E-03
:PTO012:     -1    3   -1 -4.67129767E-02 -8.501E-03 -9.819E-03
:PTO013:      0    4    0 -8.20035880E-03 -1.739E-03 -1.883E-03
:PTO014:      0    2   -3  1.84410759E-02  3.957E-03  5.087E-03

:ENE  : ********** TOTAL ENERGY IN Ry =       -36944.37703721

       TOTAL FORCE IN mRy/a.u. = |F|     Fx             Fy             Fz     with/without FOR in case.in2
:FOR001:   1.ATOM        116.591          0.000          0.000       -116.591 partial forces
       TOTAL FORCE WITH RESPECT TO GLOBAL CARTESIAN COORDINATES:
:FCA001:   1.ATOM                         0.000       -116.591          0.000 partial forces
       TOTAL FORCE WITH RESPECT TO THE GLOBAL COORDINATE SYSTEM:
:FGL001:   1.ATOM                 0.000000000  -116.590950139     0.000000000 partial forces
 Flat Integration
 New Mode for Coulomb Integral
 Consistent 3/8+Simpson combinations
 Extension of core to zero
 LDM version in phi
 Fifth-order quadrature in outwin


            ---------
:ITE002:  2. ITERATION
            ---------

:NATO :    1 INDEPENDENT AND    2 TOTAL ATOMS IN UNITCELL
       SUBSTANCE: aU                                                          

       LATTICE                      = CXY 
:POT  : POTENTIAL OPTION EX_LDA EC_LDA VX_LDA VC_LDA
:LAT  : LATTICE CONSTANTS=  5.76241 11.69339 10.09514    1.571    1.571    1.571
:VOL  : UNIT CELL VOLUME =     340.11595
       MODE OF CALCULATION IS       = RELA
       NON-SPINPOLARIZED CALCULATION
:IFFT  : FFT-parameters:   48   96   80 Factor: 2.00


   CONVERGENCE PARAMETER FOR PSEUDOCHARGE: NCON=  9
   MAXIMAL VALUE OF RMT(JATOM)*ABSK(NKK) : RK  =27.59891


:VKCOUL :  VK-COUL convergence: 0.115E-06
       ATOMNUMBER=  1 Pr1        VCOUL-ZERO =  0.40300E+00
:EFG001:                        EFG         =    -0.35770   *10**21  V / m**2
                               V20  TOT/SRF=    -0.30978    -0.05769
                               V22  TOT/SRF=    -0.01507     0.00832
                               V22M TOT/SRF=     0.00000     0.00000
                               V21  TOT/SRF=     0.00000     0.00000
                               V21M TOT/SRF=     0.00000     0.00000

              0.16378    0.00000    0.00000        0.16378    0.00000    0.00000
              0.00000    0.19392    0.00000        0.00000    0.19392    0.00000
              0.00000    0.00000   -0.35770        0.00000    0.00000   -0.35770

         MAIN DIRECTIONS OF THE EFG   1.0000  0.0000  0.0000
                                      0.0000  1.0000  0.0000
                                      0.0000  0.0000  1.0000
:ANG001:  ANGLE WITH OLD X-AXIS =         0.0

:ETA001:                         ASYMM. ETA =     0.08426


     HELLMANN-FEYNMAN-FORCE IN mRy/a.u. = |F|  Fx       Fy             Fz
:FHF001:   1.ATOM    610.395206262545      0.000000000000      0.000000000000   -610.395206262545

:FIT001: LUSE= 13 SIGMA OF V-XC FIT FOR ATOM  1  0.1070232E-04
:FIT001: LUSE= 13 SIGMA OF V-XC FIT FOR ATOM  1  0.1070232E-04
:DEN  : DENSITY INTEGRAL  =        -14195.89525616   (Ry)
       ELS_POTENTIAL_AT Z=0 and Z=0.5:   0.88262   0.88262
       ELS_POTENTIAL_AT Y=0 and Y=0.5:   0.01497   0.01497
:VZERO:v0,v0c,v0x   0.20870   0.88262  -0.67392 v5,v5c,v5x   0.20870   0.88262  -0.67392
:VZERY:v0,v0c,v0x  -0.87260   0.01497  -0.88757 v5,v5c,v5x  -0.87260   0.01497  -0.88757
:VZERX:v0,v0c,v0x  -1.22552  -0.38850  -0.83702 v5,v5c,v5x  -1.22552  -0.38850  -0.83702
:LMAX-WF:   10   Non-Spherical LMAX:   4

          ATOMIC SPHERE DEPENDENT PARAMETERS FOR ATOM  Pr1       
:e__0001: OVERALL ENERGY PARAMETER IS    0.5000
          OVERALL BASIS SET ON ATOM IS LAPW
:E0_0001: E( 0)=    0.5000
             APW+lo
:E0_0001: E( 0)=   -1.6602   E(BOTTOM)=   -2.305   E(TOP)=   -1.015  4  5   220
             LOCAL ORBITAL
:E1_0001: E( 1)=    0.9000
             APW+lo
:E1_0001: E( 1)=   -0.1956   E(BOTTOM)=   -1.165   E(TOP)=    0.774  3  4   216
             LOCAL ORBITAL
:E3_0001: E( 3)=    0.7941   E(BOTTOM)=    0.794   E(TOP)= -200.000  0 -1    90
             APW+lo
:E2_0001: E( 2)=    0.5682   E(BOTTOM)=    0.568   E(TOP)= -200.000  2 -1    74
             APW+lo

       K=   0.06250   0.00000   0.06250            1
:RKM  : MATRIX SIZE   323LOs:  40  RKM= 8.47  WEIGHT= 4.00  PGR:    
       EIGENVALUES ARE:
:EIG00001:      -1.6709207   -1.6225320   -0.4698094   -0.2827820   -0.2414047
:EIG00006:      -0.2279398   -0.2133246   -0.2097375    0.7420993    0.8131563
:EIG00011:       0.9526739    0.9774936    0.9807067    0.9812073    0.9969012
:EIG00016:       1.0240200    1.0310277    1.0322596    1.0346156    1.0392046
:EIG00021:       1.0458391    1.0502629    1.0555727    1.0742275    1.0802641
:EIG00026:       1.0896723    1.1651571    1.1674620    1.2348366    1.2715847
:EIG00031:       1.2884047    1.4429229    1.4655984    1.5424294    1.8440731
:EIG00036:       1.8934423    1.9270858    2.0496638    2.1433183
       ********************************************************

:KPT   :      NUMBER OF K-POINTS:   288
:GAP (global)   :    0.0    Ry =     0.0   eV (metal)
         Bandranges (emin - emax) and occupancy:
:BAN00005:   5   -0.404345   -0.241405  2.00000000
:BAN00006:   6   -0.374674   -0.217997  2.00000000
:BAN00007:   7   -0.333768   -0.211120  2.00000000
:BAN00008:   8   -0.258163   -0.200594  2.00000000
:BAN00009:   9    0.734352    0.896341  2.00000000
:BAN00010:  10    0.794305    0.927991  2.00000000
:BAN00011:  11    0.821439    0.984918  2.00000000
:BAN00012:  12    0.897255    0.991895  1.99976145
:BAN00013:  13    0.928382    1.018215  1.51942425
:BAN00014:  14    0.964367    1.026832  0.47788931
:BAN00015:  15    0.991023    1.034266  0.00292498
:BAN00016:  16    1.001873    1.034861  0.00000000
:BAN00017:  17    1.017516    1.037886  0.00000000
:BAN00018:  18    1.023049    1.040530  0.00000000
:BAN00019:  19    1.029414    1.048526  0.00000000
:BAN00020:  20    1.035436    1.049807  0.00000000
        Energy to separate low and high energystates:    0.68435


:NOE  : NUMBER OF ELECTRONS          =   26.000

:FER  : F E R M I - ENERGY(TETRAH.M.)=   0.9914463659
:GMA  : POTENTIAL AND CHARGE CUT-OFF  12.00 Ry**.5

:POS001: ATOM   -1 X,Y,Z = 0.00000 0.89750 0.25000  MULT= 2  ZZ= 59.000  Pr1       

       LMMAX 16
       LM=   0 0  1 0  2 0  2 2  3 0  3 2  4 0  4 2  4 4  5 0  5 2  5 4  6 0  6 2  6 4  6 6

:CHA001: TOTAL VALENCE CHARGE INSIDE SPHERE   1 =   9.2162    (RMT=  2.3000 )
:PCS001: PARTIAL CHARGES SPHERE =  1 S,P,D,F,PX,PY,PZ,D-Z2,D-X2Y2,D-XY,D-XZ,D-YZ 
:QTL001: 1.9480 4.9847 0.9127 1.3691 1.6575 1.6570 1.6702 0.1794 0.1843 0.1762 0.1842 0.1885
        Q-s-low E-s-low   Q-p-low E-p-low   Q-d-low E-d-low   Q-f-low E-f-low
:EPL001:  1.8644 -1.6198    4.8694 -0.3184    0.0104 -0.3631    0.0030 -0.3723
        Q-s-hi  E-s-hi    Q-p-hi  E-p-hi    Q-d-hi  E-d-hi    Q-f-hi  E-f-hi 
:EPH001:  0.0837  0.8649    0.1152  0.9033    0.9022  0.8874    1.3661  0.9532

                      VXX         VYY         VZZ       UP TO R
:VZZ001:             3.93599     6.77533   -10.71133       2.300

:CHA  : TOTAL VALENCE CHARGE INSIDE UNIT CELL =      26.000000

:SUM  : SUM OF EIGENVALUES =          -1.323408985


        1.ATOM      Pr1                  14 CORE STATES
       CORE-FORCE in mRy/a.u. = |F|      Fx             Fy             Fz
:FCO001:   1.ATOM    500.806965061940      0.000000000000      0.000000000000    500.806965061940

:1S 001: 1S               -3066.538144857 Ry
:2S 001: 2S                -492.303483272 Ry
:2PP001: 2P*               -465.401139914 Ry
:2P 001: 2P                -430.004323870 Ry
:3S 001: 3S                -105.400740539 Ry
:3PP001: 3P*                -93.938190219 Ry
:3P 001: 3P                 -86.930734933 Ry
:3DD001: 3D*                -66.857181974 Ry
:3D 001: 3D                 -65.345741389 Ry
:4S 001: 4S                 -20.083212288 Ry
:4PP001: 4P*                -15.790187173 Ry
:4P 001: 4P                 -14.263086338 Ry
:4DD001: 4D*                 -7.197074337 Ry
:4D 001: 4D                  -6.927835301 Ry
:CINT001 Core Integral Atom   1   45.998439

       DENSITY AT NUCLEUS
        JATOM        VALENCE       SEMI-CORE          CORE           TOTAL
:RTO001:   1      647.779028        0.000000   656821.330565   657469.109593
     
       CHARGES OF NEW CHARGE DENSITY
:NTO   : INTERSTITIAL CHARGE =     7.567691
:NPC   : PW Pseudocharge     =    17.751822
:NTO001: CHARGE SPHERE  1    =    55.214593

:NEC01: NUCLEAR AND ELECTRONIC CHARGE    118.00000   117.99688
     
       CHARGES OF OLD CHARGE DENSITY
:OTO   : INTERSTITIAL CHARGE =     6.550137
:OPC   : PW Pseudocharge     =    17.080746
:OTO001: CHARGE SPHERE  1    =    55.724931

:NEC02: NUCLEAR AND ELECTRONIC CHARGE    118.00000   118.00000
     
       CONVERGENCE TEST
:DTO001: DIFFERENCE IN SPHERE  1 =  0.8931277

:DIS  :  CHARGE DISTANCE       ( 0.8931277 for atom    1 spin 1)      0.8931277
 PW Mixed is          360
 
******************************************************
* MULTISECANT MIXING VER9 RELEASE 10.4.0              *
* Slow Mode, cautious                                *
* Fixed density scale                                *
* Regularization       1.000E-04                     *
* Step Trust Radius    0.75000                       *
* Trust Upper Limit    2.000E+00                     *
* Max Number of Memory Steps   12                    *
******************************************************
 
:PWTMP   2.3819E+02  1.9467E+02  3.4012E+02
:PLANE:  PW TOTAL      5.5277 DISTAN   2.81E-01  5.08E+00 %
:CHARG:  CLM/ATOM   1382.0484 DISTAN   1.31E+00  9.50E-02 %
 
Step History
        DMIX         DMIXT        Red     Pred      Trust     Lambda    MagRel    MagAbs     Beta
  1   3.5000E-02   3.5000E-02 -1.00E+00  1.00E+00 -1.00E+01  1.00E+00  3.50E-02  3.50E-02  1.00E+00
  2   2.5000E-02   2.5000E-02 -1.00E+00  1.00E+00 -1.00E+01  1.00E+00  2.50E-02  4.38E-02  1.00E+00
:JACOBIANS    3.519E-01   1.760E-02
  
:TRUST:  Step 4.43E-02  Charge 7.50E-02 (e) CTO  2.50E-01 (e) PW  3.50E-01 (e)
:DIRM :  MEMORY  1/12 SCALE   1.000
:MIX  :   PRATT  REGULARIZATION:  1.00E-04 GREED: 0.04431  Expand 1.77  0.0443 Step           
     
       CHARGES OF MIXED CHARGE DENSITY
:CTO   : INTERSTITIAL CHARGE =     6.562909
:CPC   : PW Pseudocharge     =    17.448765
:CTO001: CHARGE SPHERE  1    =    55.718545

:NEC03: NUCLEAR AND ELECTRONIC CHARGE    118.00000   118.00000

PW CHANGE     H    K    L      Current       Change    Residue
:PTO001:      0    0    0  7.05984964E-02  1.120E-03  4.996E-03
:PTO003:      0    2    0  1.72050129E-02  4.857E-04  1.266E-03
:PTO004:     -1    1    0  8.30543224E-02  2.571E-03  2.903E-03
:PTO005:      0    2   -1 -9.64219745E-02 -3.030E-03 -1.568E-03
:PTO006:      0    0   -2 -5.00113576E-02 -1.573E-03 -6.246E-04
:PTO007:     -1    1   -1 -1.02426312E-01 -3.532E-03 -4.705E-05
:PTO008:      0    2   -2 -1.57340402E-02 -6.909E-04  1.740E-04
:PTO009:     -1    1   -2 -7.69349395E-02 -3.717E-03 -3.341E-04
:PTO011:     -1    3    0 -1.15917320E-02 -7.027E-04 -2.898E-04
:PTO012:     -1    3   -1 -5.01387685E-02 -3.426E-03 -1.465E-03
:PTO013:      0    4    0 -8.90101662E-03 -7.007E-04 -1.500E-04
:PTO014:      0    2   -3  2.00355905E-02  1.595E-03  1.125E-03

:ENE  : ********** TOTAL ENERGY IN Ry =       -36944.34119009

       TOTAL FORCE IN mRy/a.u. = |F|     Fx             Fy             Fz     with/without FOR in case.in2
:FOR001:   1.ATOM        109.588          0.000          0.000       -109.588 partial forces
       TOTAL FORCE WITH RESPECT TO GLOBAL CARTESIAN COORDINATES:
:FCA001:   1.ATOM                         0.000       -109.588          0.000 partial forces
       TOTAL FORCE WITH RESPECT TO THE GLOBAL COORDINATE SYSTEM:
:FGL001:   1.ATOM                 0.000000000  -109.588241201     0.000000000 partial forces
 Flat Integration
 New Mode for Coulomb Integral
 Consistent 3/8+Simpson combinations
 Extension of core to zero
 LDM version in phi
 Fifth-order quadrature in outwin


            ---------
:ITE003:  3. ITERATION
            ---------

:NATO :    1 INDEPENDENT AND    2 TOTAL ATOMS IN UNITCELL
       SUBSTANCE: aU                                                          

       LATTICE                      = CXY 
:POT  : POTENTIAL OPTION EX_LDA EC_LDA VX_LDA VC_LDA
:LAT  : LATTICE CONSTANTS=  5.76241 11.69339 10.09514    1.571    1.571    1.571
:VOL  : UNIT CELL VOLUME =     340.11595
       MODE OF CALCULATION IS       = RELA
       NON-SPINPOLARIZED CALCULATION
:IFFT  : FFT-parameters:   48   96   80 Factor: 2.00


   CONVERGENCE PARAMETER FOR PSEUDOCHARGE: NCON=  9
   MAXIMAL VALUE OF RMT(JATOM)*ABSK(NKK) : RK  =27.59891


:VKCOUL :  VK-COUL convergence: 0.117E-06
       ATOMNUMBER=  1 Pr1        VCOUL-ZERO =  0.40532E+00
:EFG001:                        EFG         =    -0.47987   *10**21  V / m**2
                               V20  TOT/SRF=    -0.41558    -0.05758
                               V22  TOT/SRF=    -0.02421     0.00804
                               V22M TOT/SRF=     0.00000     0.00000
                               V21  TOT/SRF=     0.00000     0.00000
                               V21M TOT/SRF=     0.00000     0.00000

              0.21572    0.00000    0.00000        0.21572    0.00000    0.00000
              0.00000    0.26415    0.00000        0.00000    0.26415    0.00000
              0.00000    0.00000   -0.47987        0.00000    0.00000   -0.47987

         MAIN DIRECTIONS OF THE EFG   1.0000  0.0000  0.0000
                                      0.0000  1.0000  0.0000
                                      0.0000  0.0000  1.0000
:ANG001:  ANGLE WITH OLD X-AXIS =         0.0

:ETA001:                         ASYMM. ETA =     0.10091


     HELLMANN-FEYNMAN-FORCE IN mRy/a.u. = |F|  Fx       Fy             Fz
:FHF001:   1.ATOM    611.352404487270      0.000000000000      0.000000000000   -611.352404487270

:FIT001: LUSE= 13 SIGMA OF V-XC FIT FOR ATOM  1  0.1083697E-04
:FIT001: LUSE= 13 SIGMA OF V-XC FIT FOR ATOM  1  0.1083697E-04
:DEN  : DENSITY INTEGRAL  =        -14194.79359321   (Ry)
       ELS_POTENTIAL_AT Z=0 and Z=0.5:   0.88599   0.88599
       ELS_POTENTIAL_AT Y=0 and Y=0.5:   0.01648   0.01648
:VZERO:v0,v0c,v0x   0.21163   0.88599  -0.67436 v5,v5c,v5x   0.21163   0.88599  -0.67436
:VZERY:v0,v0c,v0x  -0.87261   0.01648  -0.88909 v5,v5c,v5x  -0.87261   0.01648  -0.88909
:VZERX:v0,v0c,v0x  -1.23110  -0.39129  -0.83982 v5,v5c,v5x  -1.23110  -0.39129  -0.83982
:LMAX-WF:   10   Non-Spherical LMAX:   4

          ATOMIC SPHERE DEPENDENT PARAMETERS FOR ATOM  Pr1       
:e__0001: OVERALL ENERGY PARAMETER IS    0.7000
          OVERALL BASIS SET ON ATOM IS LAPW
:E0_0001: E( 0)=    0.7000
             APW+lo
:E0_0001: E( 0)=   -1.6626   E(BOTTOM)=   -2.306   E(TOP)=   -1.019  4  5   212
             LOCAL ORBITAL
:E1_0001: E( 1)=    1.1000
             APW+lo
:E1_0001: E( 1)=   -0.1974   E(BOTTOM)=   -1.166   E(TOP)=    0.771  3  4   220
             LOCAL ORBITAL
:E3_0001: E( 3)=    1.0030   E(BOTTOM)=    0.789   E(TOP)=    1.217  0  1   131
             APW+lo
:E2_0001: E( 2)=    0.7000   E(BOTTOM)=    0.568   E(TOP)= -200.000  2 -1   120
             APW+lo

       K=   0.06250   0.00000   0.06250            1
:RKM  : MATRIX SIZE   323LOs:  40  RKM= 8.47  WEIGHT= 4.00  PGR:    
       EIGENVALUES ARE:
:EIG00001:      -1.6727998   -1.6246326   -0.4700786   -0.2838355   -0.2426143
:EIG00006:      -0.2291393   -0.2145188   -0.2110341    0.7438435    0.8147810
:EIG00011:       0.9514119    0.9736866    0.9761723    0.9776661    0.9923026
:EIG00016:       1.0184462    1.0267318    1.0268408    1.0309272    1.0333729
:EIG00021:       1.0401856    1.0453138    1.0495513    1.0676351    1.0746007
:EIG00026:       1.0849855    1.1651950    1.1662357    1.2348869    1.2715440
:EIG00031:       1.2884482    1.4430879    1.4649783    1.5413610    1.8385989
:EIG00036:       1.8871697    1.9215133    2.0479389    2.1375172    2.2083643
:EIG00041:       2.3699807
       ********************************************************

:KPT   :      NUMBER OF K-POINTS:   288
:GAP (global)   :    0.0    Ry =     0.0   eV (metal)
         Bandranges (emin - emax) and occupancy:
:BAN00005:   5   -0.404922   -0.242614  2.00000000
:BAN00006:   6   -0.375313   -0.219237  2.00000000
:BAN00007:   7   -0.334556   -0.212395  2.00000000
:BAN00008:   8   -0.259186   -0.201927  2.00000000
:BAN00009:   9    0.736109    0.897164  2.00000000
:BAN00010:  10    0.796003    0.927455  2.00000000
:BAN00011:  11    0.822995    0.981324  2.00000000
:BAN00012:  12    0.897648    0.987388  1.99999860
:BAN00013:  13    0.927614    1.012639  1.51841860
:BAN00014:  14    0.961667    1.022106  0.47879308
:BAN00015:  15    0.986812    1.028366  0.00278971
:BAN00016:  16    0.997594    1.029326  0.00000000
:BAN00017:  17    1.012091    1.032513  0.00000000
:BAN00018:  18    1.017739    1.034523  0.00000000
:BAN00019:  19    1.025296    1.042485  0.00000000
:BAN00020:  20    1.030705    1.044223  0.00000000
        Energy to separate low and high energystates:    0.68611


:NOE  : NUMBER OF ELECTRONS          =   26.000

:FER  : F E R M I - ENERGY(TETRAH.M.)=   0.9873110578
:GMA  : POTENTIAL AND CHARGE CUT-OFF  12.00 Ry**.5

:POS001: ATOM   -1 X,Y,Z = 0.00000 0.89750 0.25000  MULT= 2  ZZ= 59.000  Pr1       

       LMMAX 16
       LM=   0 0  1 0  2 0  2 2  3 0  3 2  4 0  4 2  4 4  5 0  5 2  5 4  6 0  6 2  6 4  6 6

:CHA001: TOTAL VALENCE CHARGE INSIDE SPHERE   1 =   9.2630    (RMT=  2.3000 )
:PCS001: PARTIAL CHARGES SPHERE =  1 S,P,D,F,PX,PY,PZ,D-Z2,D-X2Y2,D-XY,D-XZ,D-YZ 
:QTL001: 1.9473 4.9845 0.8935 1.4361 1.6576 1.6569 1.6699 0.1751 0.1786 0.1734 0.1810 0.1854
        Q-s-low E-s-low   Q-p-low E-p-low   Q-d-low E-d-low   Q-f-low E-f-low
:EPL001:  1.8648 -1.6220    4.8733 -0.3193    0.0104 -0.3640    0.0031 -0.3734
        Q-s-hi  E-s-hi    Q-p-hi  E-p-hi    Q-d-hi  E-d-hi    Q-f-hi  E-f-hi 
:EPH001:  0.0824  0.8648    0.1111  0.9021    0.8832  0.8863    1.4330  0.9506

                      VXX         VYY         VZZ       UP TO R
:VZZ001:             3.38262     6.69031   -10.07292       2.300

:CHA  : TOTAL VALENCE CHARGE INSIDE UNIT CELL =      26.000000

:SUM  : SUM OF EIGENVALUES =          -1.346014740


        1.ATOM      Pr1                  14 CORE STATES
       CORE-FORCE in mRy/a.u. = |F|      Fx             Fy             Fz
:FCO001:   1.ATOM    504.571490600799      0.000000000000      0.000000000000    504.571490600799

:1S 001: 1S               -3066.551881799 Ry
:2S 001: 2S                -492.317015539 Ry
:2PP001: 2P*               -465.414699622 Ry
:2P 001: 2P                -430.017871433 Ry
:3S 001: 3S                -105.413754839 Ry
:3PP001: 3P*                -93.951246478 Ry
:3P 001: 3P                 -86.943722661 Ry
:3DD001: 3D*                -66.870295085 Ry
:3D 001: 3D                 -65.358836755 Ry
:4S 001: 4S                 -20.092989396 Ry
:4PP001: 4P*                -15.799766936 Ry
:4P 001: 4P                 -14.272358968 Ry
:4DD001: 4D*                 -7.205797479 Ry
:4D 001: 4D                  -6.936452933 Ry
:CINT001 Core Integral Atom   1   45.998447

       DENSITY AT NUCLEUS
        JATOM        VALENCE       SEMI-CORE          CORE           TOTAL
:RTO001:   1      647.833743        0.000000   656822.037135   657469.870878
     
       CHARGES OF NEW CHARGE DENSITY
:NTO   : INTERSTITIAL CHARGE =     7.474007
:NPC   : PW Pseudocharge     =    17.714714
:NTO001: CHARGE SPHERE  1    =    55.261443

:NEC01: NUCLEAR AND ELECTRONIC CHARGE    118.00000   117.99689
     
       CHARGES OF OLD CHARGE DENSITY
:OTO   : INTERSTITIAL CHARGE =     6.562909
:OPC   : PW Pseudocharge     =    17.448765
:OTO001: CHARGE SPHERE  1    =    55.718545

:NEC02: NUCLEAR AND ELECTRONIC CHARGE    118.00000   118.00000
     
       CONVERGENCE TEST
:DTO001: DIFFERENCE IN SPHERE  1 =  0.7941391

:DIS  :  CHARGE DISTANCE       ( 0.7941391 for atom    1 spin 1)      0.7941391
 PW Mixed is          360
 
******************************************************
* MULTISECANT MIXING VER9 RELEASE 10.4.0              *
* Standard Mode with controls                        *
* Fixed density scale                                *
* Regularization       1.000E-04                     *
* Trust Upper Limit    5.000E+00                     *
* Max Number of Memory Steps    8                    *
******************************************************
 
:PWTMP   2.3819E+02  1.9467E+02  3.4012E+02
:PLANE:  PW TOTAL      5.6941 DISTAN   2.38E-01  4.18E+00 %
:CHARG:  CLM/ATOM   1382.0459 DISTAN   1.18E+00  8.56E-02 %
 
Step History
        DMIX         DMIXT        Red     Pred      Trust     Lambda    MagRel    MagAbs     Beta
  1   3.5000E-02   3.5000E-02 -1.00E+00  1.00E+00 -1.00E+01  1.00E+00  3.50E-02  3.50E-02  1.00E+00
  2   2.5000E-02   2.5000E-02  7.66E-01  1.00E+00 -1.00E+01  1.00E+00  2.50E-02  4.38E-02  1.00E+00
  3   4.4308E-02   4.4308E-02 -1.00E+00  1.00E+00 -1.00E+01  1.00E+00  4.43E-02  5.95E-02  1.00E+00
:JACOBIANS    6.510E-01   1.250E-02
  
:NORMS:  1/Froebius, Min, Max, Used   0.8147E+00  0.4837E+00  0.9675E+00  0.8148E+00
:INFO :  Number of Memory Steps    2 Skipping    0
:INFO :  SLambda=    1.2526622717  Max    1.2526622717
:PREDicted Charge, CTotal, PW Trust    5.238E-03   1.048E-02   1.788E-01
:PREDicted DMix, Beta, BLim   1.5219E-02  7.2282E-01  9.4380E-01

Eigenvalues, unscaled except for SY+YY
   #     SY Real        SY Imag          SS             YY         SY+YY Real      SY+YY Imag
   1   1.410745E+00   0.000000E+00   1.327345E+00   1.999142E+00   3.766180E+00   0.000000E+00
   2   1.765255E-14   0.000000E+00   0.000000E+00   8.577740E-04   1.007134E-03   0.000000E+00
 
:INFO :  Singular value  3.766E+00 Weight  1.000E+00 Projection -2.196E-01
:INFO :  Singular value  1.007E-03 Weight  9.621E-01 Projection -2.840E+01
:RANK :  ACTIVE   1.96/2  =  98.10 % ; YY RANK   1.95/2  =  97.42 %
 
:DLIM :  Beta Active  8.000E-01
:BLIM :  VZERO Control Off
:TRUST:  Step 2.77E-01  Charge 7.50E-02 (e) CTO  2.50E-01 (e) PW  3.50E-01 (e)
:DIRM :  MEMORY  2/8  SCALE   1.000 RED  0.90 PRED  1.00 NEXT  0.58 BETA  0.80
:TRAVE:  Charge 5.89E-03 (e) CTO  1.18E-02 (e) PW  2.67E-02 (e)
:DIRP :  |MSR1|= 3.613E-02 |PRATT|= 2.383E-01 ANGLE=  66.8 DEGREES
:DIRQ :  |MSR1|= 1.542E-02 |PRATT|= 1.183E+00 ANGLE=  64.8 DEGREES
:DIRT :  |MSR1|= 3.928E-02 |PRATT|= 1.207E+00 ANGLE=  76.4 DEGREES
:MIX  :   MSE1   REGULARIZATION:  2.00E-04 GREED: 0.02619  Newton 1.00  0.0326                
     
       CHARGES OF MIXED CHARGE DENSITY
:CTO   : INTERSTITIAL CHARGE =     6.574689
:CPC   : PW Pseudocharge     =    17.390343
:CTO001: CHARGE SPHERE  1    =    55.712656

:NEC03: NUCLEAR AND ELECTRONIC CHARGE    118.00000   118.00000

PW CHANGE     H    K    L      Current       Change    Residue
:PTO001:      0    0    0  7.04613594E-02 -1.371E-04  3.492E-03
:PTO003:      0    2    0  1.71552104E-02 -4.980E-05  7.868E-04
:PTO004:     -1    1    0  8.26338738E-02 -4.204E-04  3.576E-04
:PTO005:      0    2   -1 -9.58803147E-02  5.417E-04  1.467E-03
:PTO006:      0    0   -2 -4.97210153E-02  2.903E-04  9.448E-04
:PTO007:     -1    1   -1 -1.01740135E-01  6.862E-04  3.410E-03
:PTO008:      0    2   -2 -1.55952086E-02  1.388E-04  8.658E-04
:PTO009:     -1    1   -2 -7.62188615E-02  7.161E-04  3.308E-03
:PTO011:     -1    3    0 -1.14561734E-02  1.356E-04  3.953E-04
:PTO012:     -1    3   -1 -4.95162260E-02  6.225E-04  1.903E-03
:PTO013:      0    4    0 -8.77152020E-03  1.295E-04  5.475E-04
:PTO014:      0    2   -3  1.97530035E-02 -2.826E-04 -4.753E-04

:ENE  : ********** TOTAL ENERGY IN Ry =       -36944.32886765

       TOTAL FORCE IN mRy/a.u. = |F|     Fx             Fy             Fz     with/without FOR in case.in2
:FOR001:   1.ATOM        106.781          0.000          0.000       -106.781 partial forces
       TOTAL FORCE WITH RESPECT TO GLOBAL CARTESIAN COORDINATES:
:FCA001:   1.ATOM                         0.000       -106.781          0.000 partial forces
       TOTAL FORCE WITH RESPECT TO THE GLOBAL COORDINATE SYSTEM:
:FGL001:   1.ATOM                 0.000000000  -106.780913886     0.000000000 partial forces
 Flat Integration
 New Mode for Coulomb Integral
 Consistent 3/8+Simpson combinations
 Extension of core to zero
 LDM version in phi
 Fifth-order quadrature in outwin


            ---------
:ITE004:  4. ITERATION
            ---------

:NATO :    1 INDEPENDENT AND    2 TOTAL ATOMS IN UNITCELL
       SUBSTANCE: aU                                                          

       LATTICE                      = CXY 
:POT  : POTENTIAL OPTION EX_LDA EC_LDA VX_LDA VC_LDA
:LAT  : LATTICE CONSTANTS=  5.76241 11.69339 10.09514    1.571    1.571    1.571
:VOL  : UNIT CELL VOLUME =     340.11595
       MODE OF CALCULATION IS       = RELA
       NON-SPINPOLARIZED CALCULATION
:IFFT  : FFT-parameters:   48   96   80 Factor: 2.00


   CONVERGENCE PARAMETER FOR PSEUDOCHARGE: NCON=  9
   MAXIMAL VALUE OF RMT(JATOM)*ABSK(NKK) : RK  =27.59891


:VKCOUL :  VK-COUL convergence: 0.116E-06
       ATOMNUMBER=  1 Pr1        VCOUL-ZERO =  0.40535E+00
:EFG001:                        EFG         =    -0.60473   *10**21  V / m**2
                               V20  TOT/SRF=    -0.52371    -0.05650
                               V22  TOT/SRF=    -0.09629     0.00723
                               V22M TOT/SRF=     0.00000     0.00000
                               V21  TOT/SRF=     0.00000     0.00000
                               V21M TOT/SRF=     0.00000     0.00000

              0.20607    0.00000    0.00000        0.20607    0.00000    0.00000
              0.00000    0.39866    0.00000        0.00000    0.39866    0.00000
              0.00000    0.00000   -0.60473        0.00000    0.00000   -0.60473

         MAIN DIRECTIONS OF THE EFG   1.0000  0.0000  0.0000
                                      0.0000  1.0000  0.0000
                                      0.0000  0.0000  1.0000
:ANG001:  ANGLE WITH OLD X-AXIS =         0.0

:ETA001:                         ASYMM. ETA =     0.31846


     HELLMANN-FEYNMAN-FORCE IN mRy/a.u. = |F|  Fx       Fy             Fz
:FHF001:   1.ATOM    602.116371705722      0.000000000000      0.000000000000   -602.116371705722

:FIT001: LUSE= 13 SIGMA OF V-XC FIT FOR ATOM  1  0.1148987E-04
:FIT001: LUSE= 13 SIGMA OF V-XC FIT FOR ATOM  1  0.1148987E-04
:DEN  : DENSITY INTEGRAL  =        -14194.33181247   (Ry)
       ELS_POTENTIAL_AT Z=0 and Z=0.5:   0.88707   0.88707
       ELS_POTENTIAL_AT Y=0 and Y=0.5:   0.01692   0.01692
:VZERO:v0,v0c,v0x   0.21226   0.88707  -0.67481 v5,v5c,v5x   0.21226   0.88707  -0.67481
:VZERY:v0,v0c,v0x  -0.87242   0.01692  -0.88934 v5,v5c,v5x  -0.87242   0.01692  -0.88934
:VZERX:v0,v0c,v0x  -1.23093  -0.39119  -0.83975 v5,v5c,v5x  -1.23093  -0.39119  -0.83975
:LMAX-WF:   10   Non-Spherical LMAX:   4

          ATOMIC SPHERE DEPENDENT PARAMETERS FOR ATOM  Pr1       
:e__0001: OVERALL ENERGY PARAMETER IS    0.7582
          OVERALL BASIS SET ON ATOM IS LAPW
:E0_0001: E( 0)=    0.7582
             APW+lo
:E0_0001: E( 0)=   -1.6652   E(BOTTOM)=   -2.309   E(TOP)=   -1.022  4  5   215
             LOCAL ORBITAL
:E1_0001: E( 1)=    1.1582
             APW+lo
:E1_0001: E( 1)=   -0.1997   E(BOTTOM)=   -1.167   E(TOP)=    0.768  3  4   223
             LOCAL ORBITAL
:E3_0001: E( 3)=    0.9993   E(BOTTOM)=    0.786   E(TOP)=    1.213  0  1   122
             APW+lo
:E2_0001: E( 2)=    0.7582   E(BOTTOM)=    0.567   E(TOP)= -200.000  2 -1   122
             APW+lo

       K=   0.06250   0.00000   0.06250            1
:RKM  : MATRIX SIZE   323LOs:  40  RKM= 8.47  WEIGHT= 4.00  PGR:    
       EIGENVALUES ARE:
:EIG00001:      -1.6751178   -1.6271045   -0.4712460   -0.2860973   -0.2449527
:EIG00006:      -0.2310616   -0.2162857   -0.2130313    0.7436490    0.8144054
:EIG00011:       0.9499768    0.9712140    0.9732134    0.9748075    0.9890597
:EIG00016:       1.0152280    1.0235596    1.0237362    1.0286158    1.0298726
:EIG00021:       1.0365648    1.0420159    1.0460631    1.0638313    1.0711305
:EIG00026:       1.0821054    1.1640169    1.1649387    1.2338009    1.2703843
:EIG00031:       1.2875746    1.4423698    1.4639178    1.5401585    1.8379733
:EIG00036:       1.8865757    1.9209520    2.0469832    2.1372020    2.2081562
:EIG00041:       2.3695781    2.4485359
       ********************************************************

:KPT   :      NUMBER OF K-POINTS:   288
:GAP (global)   :    0.0    Ry =     0.0   eV (metal)
         Bandranges (emin - emax) and occupancy:
:BAN00005:   5   -0.406437   -0.244953  2.00000000
:BAN00006:   6   -0.377080   -0.221185  2.00000000
:BAN00007:   7   -0.336471   -0.214370  2.00000000
:BAN00008:   8   -0.261012   -0.203944  2.00000000
:BAN00009:   9    0.735922    0.896534  2.00000000
:BAN00010:  10    0.795695    0.926173  2.00000000
:BAN00011:  11    0.822589    0.978812  2.00000000
:BAN00012:  12    0.896868    0.984822  1.99995328
:BAN00013:  13    0.926078    1.009304  1.51034374
:BAN00014:  14    0.959473    1.018747  0.48784785
:BAN00015:  15    0.983948    1.024658  0.00185513
:BAN00016:  16    0.994546    1.025942  0.00000000
:BAN00017:  17    1.008750    1.029493  0.00000000
:BAN00018:  18    1.014570    1.031069  0.00000000
:BAN00019:  19    1.022621    1.038776  0.00000000
:BAN00020:  20    1.027527    1.040985  0.00000000
        Energy to separate low and high energystates:    0.68592


:NOE  : NUMBER OF ELECTRONS          =   26.000

:FER  : F E R M I - ENERGY(TETRAH.M.)=   0.9844647405
:GMA  : POTENTIAL AND CHARGE CUT-OFF  12.00 Ry**.5

:POS001: ATOM   -1 X,Y,Z = 0.00000 0.89750 0.25000  MULT= 2  ZZ= 59.000  Pr1       

       LMMAX 16
       LM=   0 0  1 0  2 0  2 2  3 0  3 2  4 0  4 2  4 4  5 0  5 2  5 4  6 0  6 2  6 4  6 6

:CHA001: TOTAL VALENCE CHARGE INSIDE SPHERE   1 =   9.2831    (RMT=  2.3000 )
:PCS001: PARTIAL CHARGES SPHERE =  1 S,P,D,F,PX,PY,PZ,D-Z2,D-X2Y2,D-XY,D-XZ,D-YZ 
:QTL001: 1.9469 4.9849 0.8857 1.4639 1.6579 1.6571 1.6700 0.1736 0.1759 0.1723 0.1797 0.1842
        Q-s-low E-s-low   Q-p-low E-p-low   Q-d-low E-d-low   Q-f-low E-f-low
:EPL001:  1.8651 -1.6245    4.8755 -0.3211    0.0103 -0.3655    0.0031 -0.3749
        Q-s-hi  E-s-hi    Q-p-hi  E-p-hi    Q-d-hi  E-d-hi    Q-f-hi  E-f-hi 
:EPH001:  0.0819  0.8637    0.1094  0.9006    0.8754  0.8848    1.4608  0.9485

                      VXX         VYY         VZZ       UP TO R
:VZZ001:             3.47731     6.80633   -10.28364       2.300

:CHA  : TOTAL VALENCE CHARGE INSIDE UNIT CELL =      26.000000

:SUM  : SUM OF EIGENVALUES =          -1.389512369


        1.ATOM      Pr1                  14 CORE STATES
       CORE-FORCE in mRy/a.u. = |F|      Fx             Fy             Fz
:FCO001:   1.ATOM    503.983043789352      0.000000000000      0.000000000000    503.983043789352

:1S 001: 1S               -3066.556666743 Ry
:2S 001: 2S                -492.321439860 Ry
:2PP001: 2P*               -465.419154712 Ry
:2P 001: 2P                -430.022311193 Ry
:3S 001: 3S                -105.418250458 Ry
:3PP001: 3P*                -93.955738531 Ry
:3P 001: 3P                 -86.948220518 Ry
:3DD001: 3D*                -66.874756898 Ry
:3D 001: 3D                 -65.363300902 Ry
:4S 001: 4S                 -20.097564119 Ry
:4PP001: 4P*                -15.804322128 Ry
:4P 001: 4P                 -14.276893456 Ry
:4DD001: 4D*                 -7.210240721 Ry
:4D 001: 4D                  -6.940883576 Ry
:CINT001 Core Integral Atom   1   45.998450

       DENSITY AT NUCLEUS
        JATOM        VALENCE       SEMI-CORE          CORE           TOTAL
:RTO001:   1      647.887756        0.000000   656822.103074   657469.990830
     
       CHARGES OF NEW CHARGE DENSITY
:NTO   : INTERSTITIAL CHARGE =     7.433743
:NPC   : PW Pseudocharge     =    17.701218
:NTO001: CHARGE SPHERE  1    =    55.281578

:NEC01: NUCLEAR AND ELECTRONIC CHARGE    118.00000   117.99690
     
       CHARGES OF OLD CHARGE DENSITY
:OTO   : INTERSTITIAL CHARGE =     6.574689
:OPC   : PW Pseudocharge     =    17.390343
:OTO001: CHARGE SPHERE  1    =    55.712656

:NEC02: NUCLEAR AND ELECTRONIC CHARGE    118.00000   118.00000
     
       CONVERGENCE TEST
:DTO001: DIFFERENCE IN SPHERE  1 =  0.7579362

:DIS  :  CHARGE DISTANCE       ( 0.7579362 for atom    1 spin 1)      0.7579362
 PW Mixed is          360
 
******************************************************
* MULTISECANT MIXING VER9 RELEASE 10.4.0              *
* Slow Mode, cautious                                *
* Fixed density scale                                *
* Regularization       1.000E-04                     *
* Step Trust Radius    0.75000                       *
* Trust Upper Limit    2.000E+00                     *
* Max Number of Memory Steps   12                    *
******************************************************
 
:PWTMP   2.3819E+02  1.9467E+02  3.4012E+02
:PLANE:  PW TOTAL      5.6659 DISTAN   2.19E-01  3.87E+00 %
:CHARG:  CLM/ATOM   1382.0433 DISTAN   1.13E+00  8.19E-02 %
 
Step History
        DMIX         DMIXT        Red     Pred      Trust     Lambda    MagRel    MagAbs     Beta
  1   3.5000E-02   3.5000E-02 -1.00E+00  1.00E+00 -1.00E+01  1.00E+00  3.50E-02  3.50E-02  1.00E+00
  2   2.5000E-02   2.5000E-02  7.66E-01  1.00E+00 -1.00E+01  1.00E+00  2.50E-02  4.38E-02  1.00E+00
  3   4.4308E-02   4.4308E-02  8.98E-01  1.00E+00 -1.00E+01  1.25E+00  4.43E-02  5.95E-02  1.00E+00
  4   2.6187E-02   2.6187E-02 -1.00E+00  5.76E-01  2.77E-01  1.00E+00  3.26E-02  3.93E-02  8.00E-01
:JACOBIANS    8.267E-01   1.501E-01
  
:NORMS:  1/Froebius, Min, Max, Used   0.6785E+00  0.4396E+00  0.9924E+00  0.8064E+00
:INFO :  Number of Memory Steps    3 Skipping    0
:INFO :  SLambda=    1.7288819766  Max    1.7288819766
:PREDicted Charge, CTotal, PW Trust    1.024E-01   2.049E-01   7.923E-02
:PREDicted DMix, Beta, BLim   2.7311E-01  4.8554E+00  4.5524E-01

Eigenvalues, unscaled except for SY+YY
   #     SY Real        SY Imag          SS             YY         SY+YY Real      SY+YY Imag
   1   1.361156E+00   0.000000E+00   1.313680E+00   2.020108E+00   4.077895E+00   0.000000E+00
   2   1.319419E-14   0.000000E+00   6.722967E-02   9.795378E-01   4.708178E-04   0.000000E+00
   3   1.603778E-01   0.000000E+00   1.542679E-16   3.545071E-04   1.552187E+00   0.000000E+00
 
:INFO :  Singular value  4.081E+00 Weight  1.000E+00 Projection -1.980E-01
:INFO :  Singular value  1.551E+00 Weight  1.000E+00 Projection -9.361E-01
:INFO :  Singular value  4.708E-04 Weight  8.445E-01 Projection -3.253E+00
:RANK :  ACTIVE   2.84/3  =  94.82 % ; YY RANK   2.75/3  =  91.83 %
 
:BLIM :  VZERO Control Off
:TRUST:  Step 2.16E-01  Charge 8.25E-02 (e) CTO  2.50E-01 (e) PW  3.50E-01 (e)
:DTRUS:  Lambda    2.797E+00 Increment    7.276E-12 Iterations   118 DMIX    5.821E-02
:INFOA:  Angle SubSpace to MSR1      5.87
:DIRM :  MEMORY  3/12 SCALE   1.000 RED  0.96 PRED  0.58 NEXT  0.31 
:INFO :  Limited by Atoms F by Step T

:TRAVE:  Charge 4.42E-02 (e) CTO  8.84E-02 (e) PW  7.16E-02 (e)
:DIRP :  |MSR1|= 6.513E-02 |PRATT|= 2.192E-01 ANGLE=  26.4 DEGREES
:DIRQ :  |MSR1|= 2.116E-01 |PRATT|= 1.132E+00 ANGLE=  56.2 DEGREES
:DIRT :  |MSR1|= 2.214E-01 |PRATT|= 1.153E+00 ANGLE=  55.1 DEGREES
:MIX  :   MSE1   REGULARIZATION:  2.02E-04 GREED: 0.06547  LMStep 0.89  0.1920 Charge         
     
       CHARGES OF MIXED CHARGE DENSITY
:CTO   : INTERSTITIAL CHARGE =     6.739689
:CPC   : PW Pseudocharge     =    17.428971
:CTO001: CHARGE SPHERE  1    =    55.630156

:NEC03: NUCLEAR AND ELECTRONIC CHARGE    118.00000   118.00000

PW CHANGE     H    K    L      Current       Change    Residue
:PTO001:      0    0    0  7.10600588E-02  5.987E-04  3.471E-03
:PTO003:      0    2    0  1.75262985E-02  3.711E-04  7.843E-04
:PTO004:     -1    1    0  8.27904258E-02  1.566E-04  7.725E-04
:PTO005:      0    2   -1 -9.54413636E-02  4.390E-04  9.065E-04
:PTO006:      0    0   -2 -4.93960294E-02  3.250E-04  6.228E-04
:PTO007:     -1    1   -1 -1.00569815E-01  1.170E-03  2.628E-03
:PTO008:      0    2   -2 -1.52721834E-02  3.230E-04  7.407E-04
:PTO009:     -1    1   -2 -7.50457731E-02  1.173E-03  2.522E-03
:PTO011:     -1    3    0 -1.12517909E-02  2.044E-04  2.382E-04
:PTO012:     -1    3   -1 -4.88833602E-02  6.329E-04  1.274E-03
:PTO013:      0    4    0 -8.60814550E-03  1.634E-04  4.156E-04
:PTO014:      0    2   -3  1.95618269E-02 -1.912E-04 -1.875E-04

:ENE  : ********** TOTAL ENERGY IN Ry =       -36944.32346707

       TOTAL FORCE IN mRy/a.u. = |F|     Fx             Fy             Fz     with/without FOR in case.in2
:FOR001:   1.ATOM         98.133          0.000          0.000        -98.133 partial forces
       TOTAL FORCE WITH RESPECT TO GLOBAL CARTESIAN COORDINATES:
:FCA001:   1.ATOM                         0.000        -98.133          0.000 partial forces
       TOTAL FORCE WITH RESPECT TO THE GLOBAL COORDINATE SYSTEM:
:FGL001:   1.ATOM                 0.000000000   -98.133327916     0.000000000 partial forces
 Flat Integration
 New Mode for Coulomb Integral
 Consistent 3/8+Simpson combinations
 Extension of core to zero
 LDM version in phi
 Fifth-order quadrature in outwin


            ---------
:ITE005:  5. ITERATION
            ---------

:NATO :    1 INDEPENDENT AND    2 TOTAL ATOMS IN UNITCELL
       SUBSTANCE: aU                                                          

       LATTICE                      = CXY 
:POT  : POTENTIAL OPTION EX_LDA EC_LDA VX_LDA VC_LDA
:LAT  : LATTICE CONSTANTS=  5.76241 11.69339 10.09514    1.571    1.571    1.571
:VOL  : UNIT CELL VOLUME =     340.11595
       MODE OF CALCULATION IS       = RELA
       NON-SPINPOLARIZED CALCULATION
:IFFT  : FFT-parameters:   48   96   80 Factor: 2.00


   CONVERGENCE PARAMETER FOR PSEUDOCHARGE: NCON=  9
   MAXIMAL VALUE OF RMT(JATOM)*ABSK(NKK) : RK  =27.59891


:VKCOUL :  VK-COUL convergence: 0.111E-06
       ATOMNUMBER=  1 Pr1        VCOUL-ZERO =  0.41054E+00
:EFG001:                        EFG         =    -2.91494   *10**21  V / m**2
                               V20  TOT/SRF=    -2.52442    -0.04406
                               V22  TOT/SRF=    -1.08410    -0.00396
                               V22M TOT/SRF=     0.00000     0.00000
                               V21  TOT/SRF=     0.00000     0.00000
                               V21M TOT/SRF=     0.00000     0.00000

              0.37338    0.00000    0.00000        0.37338    0.00000    0.00000
              0.00000    2.54157    0.00000        0.00000    2.54157    0.00000
              0.00000    0.00000   -2.91494        0.00000    0.00000   -2.91494

         MAIN DIRECTIONS OF THE EFG   1.0000  0.0000  0.0000
                                      0.0000  1.0000  0.0000
                                      0.0000  0.0000  1.0000
:ANG001:  ANGLE WITH OLD X-AXIS =         0.0

:ETA001:                         ASYMM. ETA =     0.74382


     HELLMANN-FEYNMAN-FORCE IN mRy/a.u. = |F|  Fx       Fy             Fz
:FHF001:   1.ATOM    580.048701084937      0.000000000000      0.000000000000   -580.048701084937

:FIT001: LUSE= 13 SIGMA OF V-XC FIT FOR ATOM  1  0.2383947E-04
:FIT001: LUSE= 13 SIGMA OF V-XC FIT FOR ATOM  1  0.2383947E-04
:DEN  : DENSITY INTEGRAL  =        -14186.58067796   (Ry)
       ELS_POTENTIAL_AT Z=0 and Z=0.5:   0.90659   0.90659
       ELS_POTENTIAL_AT Y=0 and Y=0.5:   0.02555   0.02555
:VZERO:v0,v0c,v0x   0.22576   0.90659  -0.68083 v5,v5c,v5x   0.22576   0.90659  -0.68083
:VZERY:v0,v0c,v0x  -0.86976   0.02555  -0.89530 v5,v5c,v5x  -0.86976   0.02555  -0.89530
:VZERX:v0,v0c,v0x  -1.23985  -0.39549  -0.84436 v5,v5c,v5x  -1.23985  -0.39549  -0.84436
:LMAX-WF:   10   Non-Spherical LMAX:   4

          ATOMIC SPHERE DEPENDENT PARAMETERS FOR ATOM  Pr1       
:e__0001: OVERALL ENERGY PARAMETER IS    0.7757
          OVERALL BASIS SET ON ATOM IS LAPW
:E0_0001: E( 0)=    0.7757
             APW+lo
:E0_0001: E( 0)=   -1.7014   E(BOTTOM)=   -2.337   E(TOP)=   -1.065  4  5   205
             LOCAL ORBITAL
:E1_0001: E( 1)=    1.1757
             APW+lo
:E1_0001: E( 1)=   -0.2314   E(BOTTOM)=   -1.190   E(TOP)=    0.727  3  4   226
             LOCAL ORBITAL
:E3_0001: E( 3)=    0.9424   E(BOTTOM)=    0.736   E(TOP)=    1.148  0  1   120
             APW+lo
:E2_0001: E( 2)=    0.7757   E(BOTTOM)=    0.549   E(TOP)= -200.000  2 -1   122
             APW+lo

       K=   0.06250   0.00000   0.06250            1
:RKM  : MATRIX SIZE   323LOs:  40  RKM= 8.47  WEIGHT= 4.00  PGR:    
       EIGENVALUES ARE:
:EIG00001:      -1.7070499   -1.6613117   -0.4860137   -0.3155148   -0.2755627
:EIG00006:      -0.2569972   -0.2401242   -0.2400069    0.7448518    0.8127583
:EIG00011:       0.9201957    0.9252894    0.9267737    0.9350375    0.9420512
:EIG00016:       0.9647381    0.9705737    0.9725686    0.9782957    0.9797131
:EIG00021:       0.9876974    0.9888199    0.9932958    1.0059827    1.0284641
:EIG00026:       1.0515969    1.1502873    1.1525070    1.2225373    1.2579383
:EIG00031:       1.2787540    1.4356057    1.4522973    1.5270992    1.8329506
:EIG00036:       1.8819908    1.9173237    2.0388477    2.1369869    2.2099904
:EIG00041:       2.3681880    2.4481907
       ********************************************************

:KPT   :      NUMBER OF K-POINTS:   288
:GAP (global)   :    0.0    Ry =     0.0   eV (metal)
         Bandranges (emin - emax) and occupancy:
:BAN00004:   4   -0.460540   -0.315515  2.00000000
:BAN00005:   5   -0.423936   -0.275563  2.00000000
:BAN00006:   6   -0.399900   -0.247513  2.00000000
:BAN00007:   7   -0.361342   -0.240124  2.00000000
:BAN00008:   8   -0.285267   -0.231231  2.00000000
:BAN00009:   9    0.737220    0.886921  2.00000000
:BAN00010:  10    0.795056    0.904621  2.00000000
:BAN00011:  11    0.820420    0.936936  2.00000000
:BAN00012:  12    0.885246    0.944628  1.97733615
:BAN00013:  13    0.901262    0.957492  1.36055982
:BAN00014:  14    0.923448    0.965182  0.66210403
:BAN00015:  15    0.939405    0.969643  0.00000000
:BAN00016:  16    0.946486    0.973688  0.00000000
:BAN00017:  17    0.959733    0.979527  0.00000000
:BAN00018:  18    0.963406    0.981498  0.00000000
:BAN00019:  19    0.971009    0.987432  0.00000000
        Energy to separate low and high energystates:    0.68722


:NOE  : NUMBER OF ELECTRONS          =   26.000

:FER  : F E R M I - ENERGY(TETRAH.M.)=   0.9392156030
:GMA  : POTENTIAL AND CHARGE CUT-OFF  12.00 Ry**.5

:POS001: ATOM   -1 X,Y,Z = 0.00000 0.89750 0.25000  MULT= 2  ZZ= 59.000  Pr1       

       LMMAX 16
       LM=   0 0  1 0  2 0  2 2  3 0  3 2  4 0  4 2  4 4  5 0  5 2  5 4  6 0  6 2  6 4  6 6

:CHA001: TOTAL VALENCE CHARGE INSIDE SPHERE   1 =   9.6619    (RMT=  2.3000 )
:PCS001: PARTIAL CHARGES SPHERE =  1 S,P,D,F,PX,PY,PZ,D-Z2,D-X2Y2,D-XY,D-XZ,D-YZ 
:QTL001: 1.9399 4.9885 0.7377 1.9945 1.6605 1.6582 1.6698 0.1436 0.1322 0.1509 0.1515 0.1594
        Q-s-low E-s-low   Q-p-low E-p-low   Q-d-low E-d-low   Q-f-low E-f-low
:EPL001:  1.8688 -1.6588    4.9092 -0.3448    0.0095 -0.3847    0.0029 -0.3947
        Q-s-hi  E-s-hi    Q-p-hi  E-p-hi    Q-d-hi  E-d-hi    Q-f-hi  E-f-hi 
:EPH001:  0.0711  0.8493    0.0792  0.8782    0.7281  0.8640    1.9916  0.9133

                      VXX         VYY         VZZ       UP TO R
:VZZ001:             5.46588     8.25977   -13.72565       2.300

:CHA  : TOTAL VALENCE CHARGE INSIDE UNIT CELL =      26.000000

:SUM  : SUM OF EIGENVALUES =          -1.995363872


        1.ATOM      Pr1                  14 CORE STATES
       CORE-FORCE in mRy/a.u. = |F|      Fx             Fy             Fz
:FCO001:   1.ATOM    592.435095390059      0.000000000000      0.000000000000    592.435095390059

:1S 001: 1S               -3066.641979445 Ry
:2S 001: 2S                -492.401551958 Ry
:2PP001: 2P*               -465.499722272 Ry
:2P 001: 2P                -430.102652705 Ry
:3S 001: 3S                -105.498292874 Ry
:3PP001: 3P*                -94.035817857 Ry
:3P 001: 3P                 -87.028237233 Ry
:3DD001: 3D*                -66.954548659 Ry
:3D 001: 3D                 -65.443087938 Ry
:4S 001: 4S                 -20.172251781 Ry
:4PP001: 4P*                -15.878388727 Ry
:4P 001: 4P                 -14.350112499 Ry
:4DD001: 4D*                 -7.281276199 Ry
:4D 001: 4D                  -7.011560872 Ry
:CINT001 Core Integral Atom   1   45.998497

       DENSITY AT NUCLEUS
        JATOM        VALENCE       SEMI-CORE          CORE           TOTAL
:RTO001:   1      647.983958        0.000000   656824.338411   657472.322369
     
       CHARGES OF NEW CHARGE DENSITY
:NTO   : INTERSTITIAL CHARGE =     6.676114
:NPC   : PW Pseudocharge     =    17.437642
:NTO001: CHARGE SPHERE  1    =    55.660439

:NEC01: NUCLEAR AND ELECTRONIC CHARGE    118.00000   117.99699
     
       CHARGES OF OLD CHARGE DENSITY
:OTO   : INTERSTITIAL CHARGE =     6.739689
:OPC   : PW Pseudocharge     =    17.428971
:OTO001: CHARGE SPHERE  1    =    55.630156

:NEC02: NUCLEAR AND ELECTRONIC CHARGE    118.00000   118.00000
     
       CONVERGENCE TEST
:DTO001: DIFFERENCE IN SPHERE  1 =  0.0812719

:DIS  :  CHARGE DISTANCE       ( 0.0812719 for atom    1 spin 1)      0.0812719
 PW Mixed is          360
 
******************************************************
* MULTISECANT MIXING VER9 RELEASE 10.4.0              *
* Standard Mode with controls                        *
* Fixed density scale                                *
* Regularization       1.000E-04                     *
* Trust Upper Limit    5.000E+00                     *
* Max Number of Memory Steps    8                    *
******************************************************
 
:PWTMP   2.3819E+02  1.9467E+02  3.4012E+02
:PLANE:  PW TOTAL      5.6625 DISTAN   6.59E-02  1.16E+00 %
:CHARG:  CLM/ATOM   1382.0028 DISTAN   3.53E-01  2.55E-02 %
 
Step History
        DMIX         DMIXT        Red     Pred      Trust     Lambda    MagRel    MagAbs     Beta
  1   3.5000E-02   3.5000E-02 -1.00E+00  1.00E+00 -1.00E+01  1.00E+00  3.50E-02  3.50E-02  1.00E+00
  2   2.5000E-02   2.5000E-02  7.66E-01  1.00E+00 -1.00E+01  1.00E+00  2.50E-02  4.38E-02  1.00E+00
  3   4.4308E-02   4.4308E-02  8.98E-01  1.00E+00 -1.00E+01  1.25E+00  4.43E-02  5.95E-02  1.00E+00
  4   2.6187E-02   2.6187E-02  9.55E-01  5.76E-01  2.77E-01  1.73E+00  3.26E-02  3.93E-02  8.00E-01
  5   6.5467E-02   5.8206E-02 -1.00E+00  3.07E-01  2.16E-01  1.00E+00  1.92E-01  2.21E-01  1.00E+00
:JACOBIANS    8.819E-01   1.387E-01
  
:NORMS:  1/Froebius, Min, Max, Used   0.2758E+00  0.2339E+00  0.9944E+00  0.3272E+00
:INFO :  Number of Memory Steps    4 Skipping    0
:INFO :  SLambda=    2.3425626855  Max    2.3425626855
:PREDicted Charge, CTotal, PW Trust    8.817E-02   1.763E-01   1.132E-01
:PREDicted DMix, Beta, BLim   2.8245E-03  1.0281E+00  1.0053E+00

Eigenvalues, unscaled except for SY+YY
   #     SY Real        SY Imag          SS             YY         SY+YY Real      SY+YY Imag
   1   4.644589E-01   0.000000E+00   2.116962E-01   3.869372E+00   4.943361E+00   0.000000E+00
   2   1.160087E-01   0.000000E+00   9.255818E-02   1.305613E-01   4.163520E-01   0.000000E+00
   3   1.081282E-15   0.000000E+00   1.141248E-06   5.536305E-05   1.714851E-05   0.000000E+00
   4   3.146869E-06   0.000000E+00   8.438989E-18   1.137397E-05   5.885568E-05   0.000000E+00
 
:INFO :  Singular value  4.944E+00 Weight  1.000E+00 Projection -3.004E-02
:INFO :  Singular value  4.163E-01 Weight  1.000E+00 Projection -5.224E-02
:INFO :  Singular value  6.080E-05 Weight  2.409E-02 Projection  6.362E-03
:INFO :  Singular value  1.660E-05 Weight  1.837E-03 Projection -8.862E-02
:RANK :  ACTIVE   2.03/4  =  50.65 % ; YY RANK   2.02/4  =  50.52 %
 
Increasing Charge by   1.667
:BLIM :  VZERO Control Off
:TRUST:  Step 6.26E-01  Charge 1.38E-01 (e) CTO  2.50E-01 (e) PW  3.50E-01 (e)
:DIRM :  MEMORY  4/8  SCALE   1.000 RED  0.31 PRED  0.31 NEXT  1.00 
:TRAVE:  Charge 2.38E-02 (e) CTO  4.77E-02 (e) PW  3.82E-02 (e)
:DIRP :  |MSR1|= 1.297E-02 |PRATT|= 6.586E-02 ANGLE=  59.7 DEGREES
:DIRQ :  |MSR1|= 1.715E-02 |PRATT|= 3.530E-01 ANGLE=  45.6 DEGREES
:DIRT :  |MSR1|= 2.150E-02 |PRATT|= 3.591E-01 ANGLE=  52.8 DEGREES
:MIX  :   MSE1   REGULARIZATION:  3.87E-04 GREED: 0.02619  Newton 1.00  0.0599                
     
       CHARGES OF MIXED CHARGE DENSITY
:CTO   : INTERSTITIAL CHARGE =     6.746694
:CPC   : PW Pseudocharge     =    17.413548
:CTO001: CHARGE SPHERE  1    =    55.626653

:NEC03: NUCLEAR AND ELECTRONIC CHARGE    118.00000   118.00000

PW CHANGE     H    K    L      Current       Change    Residue
:PTO001:      0    0    0  7.10353104E-02 -2.475E-05 -1.295E-04
:PTO003:      0    2    0  1.75217279E-02 -4.571E-06 -1.302E-04
:PTO004:     -1    1    0  8.26895263E-02 -1.009E-04  5.489E-04
:PTO005:      0    2   -1 -9.52625437E-02  1.788E-04  1.708E-04
:PTO006:      0    0   -2 -4.93046025E-02  9.143E-05 -1.787E-04
:PTO007:     -1    1   -1 -1.00324894E-01  2.449E-04  7.162E-05
:PTO008:      0    2   -2 -1.52012218E-02  7.096E-05  6.382E-04
:PTO009:     -1    1   -2 -7.47849359E-02  2.608E-04  3.080E-04
:PTO011:     -1    3    0 -1.12098178E-02  4.197E-05 -1.799E-04
:PTO012:     -1    3   -1 -4.86637983E-02  2.196E-04  5.127E-04
:PTO013:      0    4    0 -8.55852301E-03  4.962E-05  2.054E-04
:PTO014:      0    2   -3  1.94733080E-02 -8.852E-05  3.586E-05

:ENE  : ********** TOTAL ENERGY IN Ry =       -36944.27846557

       TOTAL FORCE IN mRy/a.u. = |F|     Fx             Fy             Fz     with/without FOR in case.in2
:FOR001:   1.ATOM         12.386          0.000          0.000         12.386 partial forces
       TOTAL FORCE WITH RESPECT TO GLOBAL CARTESIAN COORDINATES:
:FCA001:   1.ATOM                         0.000         12.386          0.000 partial forces
       TOTAL FORCE WITH RESPECT TO THE GLOBAL COORDINATE SYSTEM:
:FGL001:   1.ATOM                 0.000000000    12.386394305     0.000000000 partial forces
 Flat Integration
 New Mode for Coulomb Integral
 Consistent 3/8+Simpson combinations
 Extension of core to zero
 LDM version in phi
 Fifth-order quadrature in outwin


            ---------
:ITE006:  6. ITERATION
            ---------

:NATO :    1 INDEPENDENT AND    2 TOTAL ATOMS IN UNITCELL
       SUBSTANCE: aU                                                          

       LATTICE                      = CXY 
:POT  : POTENTIAL OPTION EX_LDA EC_LDA VX_LDA VC_LDA
:LAT  : LATTICE CONSTANTS=  5.76241 11.69339 10.09514    1.571    1.571    1.571
:VOL  : UNIT CELL VOLUME =     340.11595
       MODE OF CALCULATION IS       = RELA
       NON-SPINPOLARIZED CALCULATION
:IFFT  : FFT-parameters:   48   96   80 Factor: 2.00


   CONVERGENCE PARAMETER FOR PSEUDOCHARGE: NCON=  9
   MAXIMAL VALUE OF RMT(JATOM)*ABSK(NKK) : RK  =27.59891


:VKCOUL :  VK-COUL convergence: 0.112E-06
       ATOMNUMBER=  1 Pr1        VCOUL-ZERO =  0.41077E+00
:EFG001:                        EFG         =    -3.34542   *10**21  V / m**2
                               V20  TOT/SRF=    -2.89722    -0.04395
                               V22  TOT/SRF=    -1.15334    -0.00478
                               V22M TOT/SRF=     0.00000     0.00000
                               V21  TOT/SRF=     0.00000     0.00000
                               V21M TOT/SRF=     0.00000     0.00000

              0.51937    0.00000    0.00000        0.51937    0.00000    0.00000
              0.00000    2.82606    0.00000        0.00000    2.82606    0.00000
              0.00000    0.00000   -3.34542        0.00000    0.00000   -3.34542

         MAIN DIRECTIONS OF THE EFG   1.0000  0.0000  0.0000
                                      0.0000  1.0000  0.0000
                                      0.0000  0.0000  1.0000
:ANG001:  ANGLE WITH OLD X-AXIS =         0.0

:ETA001:                         ASYMM. ETA =     0.68951


     HELLMANN-FEYNMAN-FORCE IN mRy/a.u. = |F|  Fx       Fy             Fz
:FHF001:   1.ATOM    612.282560441299      0.000000000000      0.000000000000   -612.282560441299

:FIT001: LUSE= 13 SIGMA OF V-XC FIT FOR ATOM  1  0.2526317E-04
:FIT001: LUSE= 13 SIGMA OF V-XC FIT FOR ATOM  1  0.2526317E-04
:DEN  : DENSITY INTEGRAL  =        -14186.14313358   (Ry)
       ELS_POTENTIAL_AT Z=0 and Z=0.5:   0.90731   0.90731
       ELS_POTENTIAL_AT Y=0 and Y=0.5:   0.02614   0.02614
:VZERO:v0,v0c,v0x   0.22629   0.90731  -0.68103 v5,v5c,v5x   0.22629   0.90731  -0.68103
:VZERY:v0,v0c,v0x  -0.86941   0.02614  -0.89554 v5,v5c,v5x  -0.86941   0.02614  -0.89554
:VZERX:v0,v0c,v0x  -1.23997  -0.39553  -0.84444 v5,v5c,v5x  -1.23997  -0.39553  -0.84444
:LMAX-WF:   10   Non-Spherical LMAX:   4

          ATOMIC SPHERE DEPENDENT PARAMETERS FOR ATOM  Pr1       
:e__0001: OVERALL ENERGY PARAMETER IS    0.7514
          OVERALL BASIS SET ON ATOM IS LAPW
:E0_0001: E( 0)=    0.7514
             APW+lo
:E0_0001: E( 0)=   -1.7034   E(BOTTOM)=   -2.339   E(TOP)=   -1.068  4  5   210
             LOCAL ORBITAL
:E1_0001: E( 1)=    1.1514
             APW+lo
:E1_0001: E( 1)=   -0.2332   E(BOTTOM)=   -1.192   E(TOP)=    0.725  3  4   218
             LOCAL ORBITAL
:E3_0001: E( 3)=    0.9392   E(BOTTOM)=    0.734   E(TOP)=    1.145  0  1   119
             APW+lo
:E2_0001: E( 2)=    0.7514   E(BOTTOM)=    0.548   E(TOP)= -200.000  2 -1   121
             APW+lo

       K=   0.06250   0.00000   0.06250            1
:RKM  : MATRIX SIZE   323LOs:  40  RKM= 8.47  WEIGHT= 4.00  PGR:    
       EIGENVALUES ARE:
:EIG00001:      -1.7088524   -1.6632368   -0.4869623   -0.3170059   -0.2771066
:EIG00006:      -0.2585698   -0.2416346   -0.2415926    0.7447594    0.8125475
:EIG00011:       0.9179746    0.9225475    0.9241751    0.9325835    0.9396512
:EIG00016:       0.9617118    0.9674929    0.9694495    0.9752954    0.9766203
:EIG00021:       0.9846198    0.9857753    0.9904745    1.0028822    1.0265951
:EIG00026:       1.0504076    1.1494979    1.1519436    1.2218891    1.2572402
:EIG00031:       1.2781360    1.4350639    1.4515152    1.5263614    1.8325888
:EIG00036:       1.8816369    1.9170196    2.0383531    2.1367612    2.2099814
:EIG00041:       2.3680541    2.4480640
       ********************************************************

:KPT   :      NUMBER OF K-POINTS:   288
:GAP (global)   :    0.0    Ry =     0.0   eV (metal)
         Bandranges (emin - emax) and occupancy:
:BAN00004:   4   -0.461681   -0.317006  2.00000000
:BAN00005:   5   -0.424987   -0.277107  2.00000000
:BAN00006:   6   -0.401168   -0.249106  2.00000000
:BAN00007:   7   -0.362735   -0.241635  2.00000000
:BAN00008:   8   -0.286684   -0.232877  2.00000000
:BAN00009:   9    0.737130    0.885999  2.00000000
:BAN00010:  10    0.794870    0.903071  2.00000000
:BAN00011:  11    0.820149    0.934859  2.00000000
:BAN00012:  12    0.884238    0.942151  1.97493106
:BAN00013:  13    0.899584    0.954554  1.35131891
:BAN00014:  14    0.921156    0.962149  0.67375003
:BAN00015:  15    0.936802    0.966439  0.00000000
:BAN00016:  16    0.943685    0.970794  0.00000000
:BAN00017:  17    0.956958    0.976487  0.00000000
:BAN00018:  18    0.960403    0.978371  0.00000000
:BAN00019:  19    0.968014    0.984119  0.00000000
        Energy to separate low and high energystates:    0.68713


:NOE  : NUMBER OF ELECTRONS          =   26.000

:FER  : F E R M I - ENERGY(TETRAH.M.)=   0.9365858007
:GMA  : POTENTIAL AND CHARGE CUT-OFF  12.00 Ry**.5

:POS001: ATOM   -1 X,Y,Z = 0.00000 0.89750 0.25000  MULT= 2  ZZ= 59.000  Pr1       

       LMMAX 16
       LM=   0 0  1 0  2 0  2 2  3 0  3 2  4 0  4 2  4 4  5 0  5 2  5 4  6 0  6 2  6 4  6 6

:CHA001: TOTAL VALENCE CHARGE INSIDE SPHERE   1 =   9.6850    (RMT=  2.3000 )
:PCS001: PARTIAL CHARGES SPHERE =  1 S,P,D,F,PX,PY,PZ,D-Z2,D-X2Y2,D-XY,D-XZ,D-YZ 
:QTL001: 1.9394 4.9885 0.7286 2.0270 1.6607 1.6582 1.6697 0.1416 0.1299 0.1497 0.1496 0.1578
        Q-s-low E-s-low   Q-p-low E-p-low   Q-d-low E-d-low   Q-f-low E-f-low
:EPL001:  1.8690 -1.6608    4.9110 -0.3462    0.0095 -0.3858    0.0029 -0.3958
        Q-s-hi  E-s-hi    Q-p-hi  E-p-hi    Q-d-hi  E-d-hi    Q-f-hi  E-f-hi 
:EPH001:  0.0704  0.8482    0.0776  0.8767    0.7191  0.8627    2.0241  0.9111

                      VXX         VYY         VZZ       UP TO R
:VZZ001:             5.46657     8.21705   -13.68362       2.300

:CHA  : TOTAL VALENCE CHARGE INSIDE UNIT CELL =      26.000000

:SUM  : SUM OF EIGENVALUES =          -2.032415061


        1.ATOM      Pr1                  14 CORE STATES
       CORE-FORCE in mRy/a.u. = |F|      Fx             Fy             Fz
:FCO001:   1.ATOM    630.929994527502      0.000000000000      0.000000000000    630.929994527502

:1S 001: 1S               -3066.647020256 Ry
:2S 001: 2S                -492.406100880 Ry
:2PP001: 2P*               -465.504314117 Ry
:2P 001: 2P                -430.107223020 Ry
:3S 001: 3S                -105.502813688 Ry
:3PP001: 3P*                -94.040343147 Ry
:3P 001: 3P                 -87.032755988 Ry
:3DD001: 3D*                -66.959050192 Ry
:3D 001: 3D                 -65.447588735 Ry
:4S 001: 4S                 -20.176417076 Ry
:4PP001: 4P*                -15.882519632 Ry
:4P 001: 4P                 -14.354196042 Ry
:4DD001: 4D*                 -7.285235917 Ry
:4D 001: 4D                  -7.015500554 Ry
:CINT001 Core Integral Atom   1   45.998500

       DENSITY AT NUCLEUS
        JATOM        VALENCE       SEMI-CORE          CORE           TOTAL
:RTO001:   1      647.928639        0.000000   656824.500893   657472.429533
     
       CHARGES OF NEW CHARGE DENSITY
:NTO   : INTERSTITIAL CHARGE =     6.630077
:NPC   : PW Pseudocharge     =    17.420951
:NTO001: CHARGE SPHERE  1    =    55.683461

:NEC01: NUCLEAR AND ELECTRONIC CHARGE    118.00000   117.99700
     
       CHARGES OF OLD CHARGE DENSITY
:OTO   : INTERSTITIAL CHARGE =     6.746694
:OPC   : PW Pseudocharge     =    17.413548
:OTO001: CHARGE SPHERE  1    =    55.626653

:NEC02: NUCLEAR AND ELECTRONIC CHARGE    118.00000   118.00000
     
       CONVERGENCE TEST
:DTO001: DIFFERENCE IN SPHERE  1 =  0.0611027

:DIS  :  CHARGE DISTANCE       ( 0.0611027 for atom    1 spin 1)      0.0611027
 PW Mixed is          360
 
******************************************************
* MULTISECANT MIXING VER9 RELEASE 10.4.0              *
* Slow Mode, cautious                                *
* Fixed density scale                                *
* Regularization       1.000E-04                     *
* Step Trust Radius    0.75000                       *
* Trust Upper Limit    2.000E+00                     *
* Max Number of Memory Steps   12                    *
******************************************************
 
:PWTMP   2.3819E+02  1.9467E+02  3.4012E+02
:PLANE:  PW TOTAL      5.6540 DISTAN   6.16E-02  1.09E+00 %
:CHARG:  CLM/ATOM   1381.9990 DISTAN   3.37E-01  2.44E-02 %
 
Step History
        DMIX         DMIXT        Red     Pred      Trust     Lambda    MagRel    MagAbs     Beta
  1   3.5000E-02   3.5000E-02 -1.00E+00  1.00E+00 -1.00E+01  1.00E+00  3.50E-02  3.50E-02  1.00E+00
  2   2.5000E-02   2.5000E-02  7.66E-01  1.00E+00 -1.00E+01  1.00E+00  2.50E-02  4.38E-02  1.00E+00
  3   4.4308E-02   4.4308E-02  8.98E-01  1.00E+00 -1.00E+01  1.25E+00  4.43E-02  5.95E-02  1.00E+00
  4   2.6187E-02   2.6187E-02  9.55E-01  5.76E-01  2.77E-01  1.73E+00  3.26E-02  3.93E-02  8.00E-01
  5   6.5467E-02   5.8206E-02  3.11E-01  3.07E-01  2.16E-01  2.34E+00  1.92E-01  2.21E-01  1.00E+00
  6   2.6187E-02   2.6187E-02 -1.00E+00  9.98E-01  6.26E-01  1.00E+00  5.99E-02  2.15E-02  1.00E+00
:JACOBIANS    9.230E-01   4.037E-01
  
:NORMS:  1/Froebius, Min, Max, Used   0.2829E+00  0.2111E+00  0.9949E+00  0.3494E+00
:INFO :  Number of Memory Steps    5 Skipping    0
:INFO :  SLambda=    1.0072032051  Max    1.0072032051
:PREDicted Charge, CTotal, PW Trust    3.181E-02   6.362E-02   6.408E-02
:PREDicted DMix, Beta, BLim   5.5049E-01  6.4858E+00  5.8840E-01

Eigenvalues, unscaled except for SY+YY
   #     SY Real        SY Imag          SS             YY         SY+YY Real      SY+YY Imag
   1   5.287333E-01   0.000000E+00   2.131802E-01   4.785189E+00   5.320958E+00   0.000000E+00
   2   1.837198E-01   0.000000E+00   1.782235E-01   1.863866E-01   3.682841E-01   0.000000E+00
   3   1.572131E-02   0.000000E+00   8.671902E-03   2.837288E-02   4.412322E-02   0.000000E+00
   4  -7.811606E-16   0.000000E+00   1.447766E-07   4.334059E-05   9.978182E-06   0.000000E+00
   5   3.133293E-06   0.000000E+00  -1.254543E-17   8.075152E-06   4.725300E-05   0.000000E+00
 
:INFO :  Singular value  5.322E+00 Weight  1.000E+00 Projection -6.894E-03
:INFO :  Singular value  3.682E-01 Weight  1.000E+00 Projection -1.817E-01
:INFO :  Singular value  4.412E-02 Weight  9.999E-01 Projection -1.940E+00
:INFO :  Singular value  4.756E-05 Weight  9.781E-03 Projection -7.994E-02
:INFO :  Singular value  9.914E-06 Weight  4.290E-04 Projection -1.469E-03
:RANK :  ACTIVE   3.01/5  =  60.20 % ; YY RANK   3.01/5  =  60.16 %
 
:BLIM :  VZERO Control Off
:TRUST:  Step 6.55E-01  Charge 1.33E-01 (e) CTO  2.50E-01 (e) PW  2.80E-01 (e)
:DIRM :  MEMORY  5/12 SCALE   1.000 RED  0.96 PRED  1.00 NEXT  0.31 
:TRAVE:  Charge 3.00E-02 (e) CTO  5.99E-02 (e) PW  4.84E-02 (e)
:DIRP :  |MSR1|= 4.303E-02 |PRATT|= 6.157E-02 ANGLE=  28.0 DEGREES
:DIRQ :  |MSR1|= 1.943E-01 |PRATT|= 3.374E-01 ANGLE=   1.7 DEGREES
:DIRT :  |MSR1|= 1.990E-01 |PRATT|= 3.430E-01 ANGLE=   6.1 DEGREES
:MIX  :   MSE1   REGULARIZATION:  4.79E-04 GREED: 0.06547  Newton 1.00  0.5802                
     
       CHARGES OF MIXED CHARGE DENSITY
:CTO   : INTERSTITIAL CHARGE =     6.674522
:CPC   : PW Pseudocharge     =    17.383251
:CTO001: CHARGE SPHERE  1    =    55.662739

:NEC03: NUCLEAR AND ELECTRONIC CHARGE    118.00000   118.00000

PW CHANGE     H    K    L      Current       Change    Residue
:PTO001:      0    0    0  7.07340354E-02 -3.013E-04 -2.891E-04
:PTO003:      0    2    0  1.73771827E-02 -1.445E-04 -1.552E-04
:PTO004:     -1    1    0  8.27798296E-02  9.030E-05  6.275E-04
:PTO005:      0    2   -1 -9.49934703E-02  2.691E-04 -3.952E-05
:PTO006:      0    0   -2 -4.93101847E-02 -5.582E-06 -2.885E-04
:PTO007:     -1    1   -1 -1.00126329E-01  1.986E-04 -2.509E-04
:PTO008:      0    2   -2 -1.47957290E-02  4.055E-04  5.789E-04
:PTO009:     -1    1   -2 -7.44101672E-02  3.748E-04  1.272E-06
:PTO011:     -1    3    0 -1.12853602E-02 -7.554E-05 -2.379E-04
:PTO012:     -1    3   -1 -4.81636371E-02  5.002E-04  2.806E-04
:PTO013:      0    4    0 -8.40528720E-03  1.532E-04  1.486E-04
:PTO014:      0    2   -3  1.93788122E-02 -9.450E-05  1.199E-04

:ENE  : ********** TOTAL ENERGY IN Ry =       -36944.27842456

       TOTAL FORCE IN mRy/a.u. = |F|     Fx             Fy             Fz     with/without FOR in case.in2
:FOR001:   1.ATOM         18.647          0.000          0.000         18.647 partial forces
       TOTAL FORCE WITH RESPECT TO GLOBAL CARTESIAN COORDINATES:
:FCA001:   1.ATOM                         0.000         18.647          0.000 partial forces
       TOTAL FORCE WITH RESPECT TO THE GLOBAL COORDINATE SYSTEM:
:FGL001:   1.ATOM                 0.000000000    18.647434086     0.000000000 partial forces
 Flat Integration
 New Mode for Coulomb Integral
 Consistent 3/8+Simpson combinations
 Extension of core to zero
 LDM version in phi
 Fifth-order quadrature in outwin


            ---------
:ITE007:  7. ITERATION
            ---------

:NATO :    1 INDEPENDENT AND    2 TOTAL ATOMS IN UNITCELL
       SUBSTANCE: aU                                                          

       LATTICE                      = CXY 
:POT  : POTENTIAL OPTION EX_LDA EC_LDA VX_LDA VC_LDA
:LAT  : LATTICE CONSTANTS=  5.76241 11.69339 10.09514    1.571    1.571    1.571
:VOL  : UNIT CELL VOLUME =     340.11595
       MODE OF CALCULATION IS       = RELA
       NON-SPINPOLARIZED CALCULATION
:IFFT  : FFT-parameters:   48   96   80 Factor: 2.00


   CONVERGENCE PARAMETER FOR PSEUDOCHARGE: NCON=  9
   MAXIMAL VALUE OF RMT(JATOM)*ABSK(NKK) : RK  =27.59891


:VKCOUL :  VK-COUL convergence: 0.156E-06
       ATOMNUMBER=  1 Pr1        VCOUL-ZERO =  0.41080E+00
:EFG001:                        EFG         =    -9.21366   *10**21  V / m**2
                               V20  TOT/SRF=    -7.97926    -0.05757
                               V22  TOT/SRF=    -1.26923    -0.00667
                               V22M TOT/SRF=     0.00000     0.00000
                               V21  TOT/SRF=     0.00000     0.00000
                               V21M TOT/SRF=     0.00000     0.00000

              3.33759    0.00000    0.00000        3.33759    0.00000    0.00000
              0.00000    5.87606    0.00000        0.00000    5.87606    0.00000
              0.00000    0.00000   -9.21366        0.00000    0.00000   -9.21366

         MAIN DIRECTIONS OF THE EFG   1.0000  0.0000  0.0000
                                      0.0000  1.0000  0.0000
                                      0.0000  0.0000  1.0000
:ANG001:  ANGLE WITH OLD X-AXIS =         0.0

:ETA001:                         ASYMM. ETA =     0.27551


     HELLMANN-FEYNMAN-FORCE IN mRy/a.u. = |F|  Fx       Fy             Fz
:FHF001:   1.ATOM   1330.812904413950      0.000000000000      0.000000000000  -1330.812904413950

:FIT001: LUSE= 13 SIGMA OF V-XC FIT FOR ATOM  1  0.4225060E-04
:FIT001: LUSE= 13 SIGMA OF V-XC FIT FOR ATOM  1  0.4225060E-04
:DEN  : DENSITY INTEGRAL  =        -14186.74506264   (Ry)
       ELS_POTENTIAL_AT Z=0 and Z=0.5:   0.89854   0.89854
       ELS_POTENTIAL_AT Y=0 and Y=0.5:   0.02820   0.02820
:VZERO:v0,v0c,v0x   0.22136   0.89854  -0.67718 v5,v5c,v5x   0.22136   0.89854  -0.67718
:VZERY:v0,v0c,v0x  -0.86560   0.02820  -0.89380 v5,v5c,v5x  -0.86560   0.02820  -0.89380
:VZERX:v0,v0c,v0x  -1.23538  -0.39308  -0.84230 v5,v5c,v5x  -1.23538  -0.39308  -0.84230
:LMAX-WF:   10   Non-Spherical LMAX:   4

          ATOMIC SPHERE DEPENDENT PARAMETERS FOR ATOM  Pr1       
:e__0001: OVERALL ENERGY PARAMETER IS    0.7415
          OVERALL BASIS SET ON ATOM IS LAPW
:E0_0001: E( 0)=    0.7415
             APW+lo
:E0_0001: E( 0)=   -1.6975   E(BOTTOM)=   -2.334   E(TOP)=   -1.061  4  5   212
             LOCAL ORBITAL
:E1_0001: E( 1)=    1.1415
             APW+lo
:E1_0001: E( 1)=   -0.2280   E(BOTTOM)=   -1.188   E(TOP)=    0.732  3  4   214
             LOCAL ORBITAL
:E3_0001: E( 3)=    0.9463   E(BOTTOM)=    0.740   E(TOP)=    1.153  0  1   125
             APW+lo
:E2_0001: E( 2)=    0.7415   E(BOTTOM)=    0.551   E(TOP)= -200.000  2 -1   123
             APW+lo

       K=   0.06250   0.00000   0.06250            1
:RKM  : MATRIX SIZE   323LOs:  40  RKM= 8.47  WEIGHT= 4.00  PGR:    
       EIGENVALUES ARE:
:EIG00001:      -1.7036760   -1.6577400   -0.4860883   -0.3085201   -0.2682489
:EIG00006:      -0.2561572   -0.2400444   -0.2390452    0.7426517    0.8125091
:EIG00011:       0.9244717    0.9299662    0.9316264    0.9343242    0.9481834
:EIG00016:       0.9647047    0.9732674    0.9733829    0.9780623    0.9854335
:EIG00021:       0.9912030    0.9950043    0.9953492    1.0117236    1.0301480
:EIG00026:       1.0527063    1.1503973    1.1545498    1.2232862    1.2593931
:EIG00031:       1.2770305    1.4331812    1.4509396    1.5281531    1.8317846
:EIG00036:       1.8804343    1.9156497    2.0384437    2.1330420    2.2074370
:EIG00041:       2.3675512
       ********************************************************

:KPT   :      NUMBER OF K-POINTS:   288
:GAP (global)   :    0.0    Ry =     0.0   eV (metal)
         Bandranges (emin - emax) and occupancy:
:BAN00004:   4   -0.456459   -0.308520  2.00000000
:BAN00005:   5   -0.423575   -0.268249  2.00000000
:BAN00006:   6   -0.396314   -0.246622  2.00000000
:BAN00007:   7   -0.357672   -0.240044  2.00000000
:BAN00008:   8   -0.283387   -0.230269  2.00000000
:BAN00009:   9    0.734964    0.886654  2.00000000
:BAN00010:  10    0.793816    0.905926  2.00000000
:BAN00011:  11    0.819488    0.938867  2.00000000
:BAN00012:  12    0.884113    0.944586  1.99154296
:BAN00013:  13    0.903506    0.960715  1.40306712
:BAN00014:  14    0.924693    0.971058  0.60538992
:BAN00015:  15    0.943513    0.974537  0.00000000
:BAN00016:  16    0.950311    0.975507  0.00000000
:BAN00017:  17    0.963033    0.980152  0.00000000
:BAN00018:  18    0.966946    0.981682  0.00000000
:BAN00019:  19    0.974597    0.990631  0.00000000
        Energy to separate low and high energystates:    0.68496


:NOE  : NUMBER OF ELECTRONS          =   26.000

:FER  : F E R M I - ENERGY(TETRAH.M.)=   0.9424755423
:GMA  : POTENTIAL AND CHARGE CUT-OFF  12.00 Ry**.5

:POS001: ATOM   -1 X,Y,Z = 0.00000 0.89750 0.25000  MULT= 2  ZZ= 59.000  Pr1       

       LMMAX 16
       LM=   0 0  1 0  2 0  2 2  3 0  3 2  4 0  4 2  4 4  5 0  5 2  5 4  6 0  6 2  6 4  6 6

:CHA001: TOTAL VALENCE CHARGE INSIDE SPHERE   1 =   9.6220    (RMT=  2.3000 )
:PCS001: PARTIAL CHARGES SPHERE =  1 S,P,D,F,PX,PY,PZ,D-Z2,D-X2Y2,D-XY,D-XZ,D-YZ 
:QTL001: 1.9407 4.9871 0.7497 1.9431 1.6608 1.6578 1.6684 0.1442 0.1371 0.1541 0.1532 0.1611
        Q-s-low E-s-low   Q-p-low E-p-low   Q-d-low E-d-low   Q-f-low E-f-low
:EPL001:  1.8684 -1.6552    4.9047 -0.3424    0.0096 -0.3832    0.0029 -0.3921
        Q-s-hi  E-s-hi    Q-p-hi  E-p-hi    Q-d-hi  E-d-hi    Q-f-hi  E-f-hi 
:EPH001:  0.0723  0.8492    0.0824  0.8788    0.7402  0.8648    1.9402  0.9154

                      VXX         VYY         VZZ       UP TO R
:VZZ001:            -0.35926     5.47495    -5.11569       2.300

:CHA  : TOTAL VALENCE CHARGE INSIDE UNIT CELL =      26.000000

:SUM  : SUM OF EIGENVALUES =          -1.944889812


        1.ATOM      Pr1                  14 CORE STATES
       CORE-FORCE in mRy/a.u. = |F|      Fx             Fy             Fz
:FCO001:   1.ATOM   1330.760911829904      0.000000000000      0.000000000000   1330.760911829904

[...]
:OTO001: CHARGE SPHERE  1    =    55.669904

:NEC02: NUCLEAR AND ELECTRONIC CHARGE    118.00000   118.00000
     
       CONVERGENCE TEST
:DTO001: DIFFERENCE IN SPHERE  1 =  0.0001028

:DIS  :  CHARGE DISTANCE       ( 0.0001028 for atom    1 spin 1)      0.0001028
 PW Mixed is          360
 
******************************************************
* MULTISECANT MIXING VER9 RELEASE 10.4.0              *
* Standard Mode with controls                        *
* Fixed density scale                                *
* Regularization       1.000E-04                     *
* Trust Upper Limit    5.000E+00                     *
* Max Number of Memory Steps    8                    *
******************************************************
 
:PWTMP   2.3819E+02  1.9467E+02  3.4012E+02
:PLANE:  PW TOTAL      5.6499 DISTAN   8.05E-05  1.43E-03 %
:CHARG:  CLM/ATOM   1381.9548 DISTAN   1.79E-04  1.30E-05 %
 
Step History
        DMIX         DMIXT        Red     Pred      Trust     Lambda    MagRel    MagAbs     Beta
  9   6.9374E-02   6.9374E-02  1.37E+00  5.97E-01  1.01E+00  1.49E+00  4.60E-01  7.66E-02  1.00E+00
 10   5.7187E-02   5.7187E-02  3.36E-01  3.05E-01  7.60E-01  2.17E+00  1.90E-01  4.33E-02  1.00E+00
 11   8.4308E-02   8.4308E-02  1.40E+00  4.97E-01  1.01E+00  2.21E+00  4.41E-01  3.38E-02  8.00E-01
 12   6.9720E-02   6.9720E-02  3.27E-01  3.88E-01  7.60E-01  2.06E+00  2.34E-01  2.51E-02  6.40E-01
 13   1.2538E-01   1.2538E-01  6.18E-01  3.15E-01  1.01E+00  1.94E+00  2.63E-01  9.25E-03  8.00E-01
 14   1.9491E-01   1.9491E-01  1.34E-01  1.86E-01  1.35E+00  2.08E+00  3.64E-01  7.91E-03  1.00E+00
 15   2.0596E-01   2.0596E-01  3.45E-01  5.61E-01  1.80E+00  1.33E+00  5.82E-01  1.69E-03  1.00E+00
 16   2.1919E-01   2.1919E-01  3.83E-01  6.00E-01  2.40E+00  1.93E+00  6.01E-01  6.03E-04  1.00E+00
 17   2.3494E-01   2.3494E-01 -1.00E+00  7.45E-01  3.20E+00  1.00E+00  5.46E-01  2.09E-04  9.88E-01
:JACOBIANS    8.448E-01   3.265E+00
  
:NORMS:  1/Froebius, Min, Max, Used   0.5458E+00  0.4755E+00  0.1076E+01  0.5458E+00
:INFO :  Number of Memory Steps    8 Skipping    8
:INFO :  SLambda=    1.8740591749  Max    1.8740591749
:PREDicted Charge, CTotal, PW Trust    4.179E-05   8.358E-05   2.324E-04
:PREDicted DMix, Beta, BLim   5.7392E-01  1.2123E+00  4.8629E+00

Eigenvalues, unscaled except for SY+YY
   #     SY Real        SY Imag          SS             YY         SY+YY Real      SY+YY Imag
   1   1.573480E+00   0.000000E+00   1.147852E+00   5.076109E+00   7.946936E+00   0.000000E+00
   2   1.349955E+00   0.000000E+00   9.491074E-01   1.821598E+00   4.347684E+00   0.000000E+00
   3   2.935688E-01   0.000000E+00   1.827467E-01   5.879992E-01   1.135737E+00   0.000000E+00
   4   1.164910E-01   0.000000E+00   6.191027E-02   2.501065E-01   5.166497E-01   0.000000E+00
   5   6.760626E-02   0.000000E+00   3.431076E-02   1.987240E-01   3.443996E-01   0.000000E+00
   6   2.070743E-02   0.000000E+00   5.957982E-03   5.438899E-02   1.095331E-01   0.000000E+00
   7   5.006204E-04   0.000000E+00   1.480576E-03   1.011551E-02   2.274657E-03   0.000000E+00
   8   3.848591E-03   0.000000E+00   1.340846E-04   9.587753E-04   1.760848E-02   0.000000E+00
 
:INFO :  Singular value  7.964E+00 Weight  1.000E+00 Projection  1.987E-05
:INFO :  Singular value  4.344E+00 Weight  1.000E+00 Projection -3.700E-05
:INFO :  Singular value  1.139E+00 Weight  1.000E+00 Projection -9.482E-05
:INFO :  Singular value  5.166E-01 Weight  1.000E+00 Projection  2.048E-04
:INFO :  Singular value  3.435E-01 Weight  1.000E+00 Projection -8.808E-05
:INFO :  Singular value  1.095E-01 Weight  1.000E+00 Projection  4.481E-04
:INFO :  Singular value  1.761E-02 Weight  9.992E-01 Projection  6.498E-04
:INFO :  Singular value  2.274E-03 Weight  9.525E-01 Projection -2.831E-03
:RANK :  ACTIVE   7.95/8  =  99.40 % ; YY RANK   7.78/8  =  97.23 %
 
:BLIM :  VZERO Control Off
:TRUST:  Step 4.27E+00  Charge 1.17E-02 (e) CTO  2.34E-02 (e) PW  2.67E-02 (e)
:DIRM :  MEMORY  8/8  SCALE   1.000 RED  0.51 PRED  0.75 NEXT  0.21 
:TRAVE:  Charge 1.37E-04 (e) CTO  2.74E-04 (e) PW  4.65E-04 (e)
:DIRP :  |MSR1|= 7.768E-05 |PRATT|= 8.054E-05 ANGLE=   8.8 DEGREES
:DIRQ :  |MSR1|= 1.437E-04 |PRATT|= 1.790E-04 ANGLE=  20.8 DEGREES
:DIRT :  |MSR1|= 1.633E-04 |PRATT|= 1.963E-04 ANGLE=  19.4 DEGREES
:MIX  :   MSE1   REGULARIZATION:  5.08E-04 GREED: 0.34595  Newton 1.00  0.8320                
     
       CHARGES OF MIXED CHARGE DENSITY
:CTO   : INTERSTITIAL CHARGE =     6.660135
:CPC   : PW Pseudocharge     =    17.416945
:CTO001: CHARGE SPHERE  1    =    55.669932

:NEC03: NUCLEAR AND ELECTRONIC CHARGE    118.00000   118.00000

PW CHANGE     H    K    L      Current       Change    Residue
:PTO001:      0    0    0  7.07908004E-02 -7.272E-07 -6.184E-07
:PTO003:      0    2    0  1.73363088E-02 -6.000E-08  1.312E-07
:PTO004:     -1    1    0  8.30055346E-02 -8.686E-07 -8.125E-07
:PTO005:      0    2   -1 -9.53413620E-02  7.774E-07  7.518E-07
:PTO006:      0    0   -2 -4.94134715E-02  4.923E-07  5.001E-07
:PTO007:     -1    1   -1 -1.00476887E-01  8.679E-07  1.108E-06
:PTO008:      0    2   -2 -1.47599033E-02 -1.659E-08  2.737E-08
:PTO009:     -1    1   -2 -7.46928186E-02 -9.411E-07 -9.040E-07
:PTO011:     -1    3    0 -1.15555221E-02  5.704E-08  1.533E-07
:PTO012:     -1    3   -1 -4.84696264E-02 -1.010E-06 -1.171E-06
:PTO013:      0    4    0 -8.45671774E-03 -1.017E-07 -1.124E-07
:PTO014:      0    2   -3  1.95056286E-02  3.946E-07  4.924E-07

:ENE  : ********** TOTAL ENERGY IN Ry =       -36944.27738832

       TOTAL FORCE IN mRy/a.u. = |F|     Fx             Fy             Fz     with/without FOR in case.in2
:FOR001:   1.ATOM          8.729          0.000          0.000         -8.729 partial forces
       TOTAL FORCE WITH RESPECT TO GLOBAL CARTESIAN COORDINATES:
:FCA001:   1.ATOM                         0.000         -8.729          0.000 partial forces
       TOTAL FORCE WITH RESPECT TO THE GLOBAL COORDINATE SYSTEM:
:FGL001:   1.ATOM                 0.000000000    -8.729298616     0.000000000 partial forces
 Flat Integration
 New Mode for Coulomb Integral
 Consistent 3/8+Simpson combinations
 Extension of core to zero
 LDM version in phi
 Fifth-order quadrature in outwin


            ---------
:ITE018: 18. ITERATION
            ---------

:NATO :    1 INDEPENDENT AND    2 TOTAL ATOMS IN UNITCELL
       SUBSTANCE: aU                                                          

       LATTICE                      = CXY 
:POT  : POTENTIAL OPTION EX_LDA EC_LDA VX_LDA VC_LDA
:LAT  : LATTICE CONSTANTS=  5.76241 11.69339 10.09514    1.571    1.571    1.571
:VOL  : UNIT CELL VOLUME =     340.11595
       MODE OF CALCULATION IS       = RELA
       NON-SPINPOLARIZED CALCULATION
:IFFT  : FFT-parameters:   48   96   80 Factor: 2.00


   CONVERGENCE PARAMETER FOR PSEUDOCHARGE: NCON=  9
   MAXIMAL VALUE OF RMT(JATOM)*ABSK(NKK) : RK  =27.59891


:VKCOUL :  VK-COUL convergence: 0.200E-06
       ATOMNUMBER=  1 Pr1        VCOUL-ZERO =  0.41100E+00
:EFG001:                        EFG         =    -9.70376   *10**21  V / m**2
                               V20  TOT/SRF=    -8.40370    -0.05248
                               V22  TOT/SRF=    -2.44148    -0.00806
                               V22M TOT/SRF=     0.00000     0.00000
                               V21  TOT/SRF=     0.00000     0.00000
                               V21M TOT/SRF=     0.00000     0.00000

              2.41040    0.00000    0.00000        2.41040    0.00000    0.00000
              0.00000    7.29336    0.00000        0.00000    7.29336    0.00000
              0.00000    0.00000   -9.70376        0.00000    0.00000   -9.70376

         MAIN DIRECTIONS OF THE EFG   1.0000  0.0000  0.0000
                                      0.0000  1.0000  0.0000
                                      0.0000  0.0000  1.0000
:ANG001:  ANGLE WITH OLD X-AXIS =         0.0

:ETA001:                         ASYMM. ETA =     0.50320


     HELLMANN-FEYNMAN-FORCE IN mRy/a.u. = |F|  Fx       Fy             Fz
:FHF001:   1.ATOM   1657.630426278968      0.000000000000      0.000000000000  -1657.630426278968

:FIT001: LUSE= 13 SIGMA OF V-XC FIT FOR ATOM  1  0.5988519E-04
:FIT001: LUSE= 13 SIGMA OF V-XC FIT FOR ATOM  1  0.5988519E-04
:DEN  : DENSITY INTEGRAL  =        -14185.46532117   (Ry)
       ELS_POTENTIAL_AT Z=0 and Z=0.5:   0.89828   0.89828
       ELS_POTENTIAL_AT Y=0 and Y=0.5:   0.02793   0.02793
:VZERO:v0,v0c,v0x   0.22198   0.89828  -0.67630 v5,v5c,v5x   0.22198   0.89828  -0.67630
:VZERY:v0,v0c,v0x  -0.86558   0.02793  -0.89352 v5,v5c,v5x  -0.86558   0.02793  -0.89352
:VZERX:v0,v0c,v0x  -1.23542  -0.39340  -0.84202 v5,v5c,v5x  -1.23542  -0.39340  -0.84202
:LMAX-WF:   10   Non-Spherical LMAX:   4

          ATOMIC SPHERE DEPENDENT PARAMETERS FOR ATOM  Pr1       
:e__0001: OVERALL ENERGY PARAMETER IS    0.7355
          OVERALL BASIS SET ON ATOM IS LAPW
:E0_0001: E( 0)=    0.7355
             APW+lo
:E0_0001: E( 0)=   -1.7018   E(BOTTOM)=   -2.338   E(TOP)=   -1.066  4  5   212
             LOCAL ORBITAL
:E1_0001: E( 1)=    1.1355
             APW+lo
:E1_0001: E( 1)=   -0.2316   E(BOTTOM)=   -1.190   E(TOP)=    0.727  3  4   220
             LOCAL ORBITAL
:E3_0001: E( 3)=    0.9381   E(BOTTOM)=    0.733   E(TOP)=    1.143  0  1   123
             APW+lo
:E2_0001: E( 2)=    0.7355   E(BOTTOM)=    0.548   E(TOP)= -200.000  2 -1   122
             APW+lo

       K=   0.06250   0.00000   0.06250            1
:RKM  : MATRIX SIZE   323LOs:  40  RKM= 8.47  WEIGHT= 4.00  PGR:    
       EIGENVALUES ARE:
:EIG00001:      -1.7074605   -1.6617383   -0.4871316   -0.3138289   -0.2739559
:EIG00006:      -0.2584827   -0.2416321   -0.2414466    0.7413728    0.8109851
:EIG00011:       0.9179015    0.9225783    0.9237889    0.9295770    0.9401236
:EIG00016:       0.9588590    0.9657070    0.9667977    0.9720459    0.9763133
:EIG00021:       0.9844379    0.9861385    0.9872515    1.0023588    1.0255299
:EIG00026:       1.0493767    1.1480435    1.1517644    1.2208500    1.2566889
:EIG00031:       1.2756021    1.4321271    1.4495788    1.5259612    1.8291136
:EIG00036:       1.8776931    1.9133312    2.0371243    2.1321539    2.2064098
:EIG00041:       2.3660313
       ********************************************************

:KPT   :      NUMBER OF K-POINTS:   288
:GAP (global)   :    0.0    Ry =     0.0   eV (metal)
         Bandranges (emin - emax) and occupancy:
:BAN00004:   4   -0.460028   -0.313829  2.00000000
:BAN00005:   5   -0.424729   -0.273956  2.00000000
:BAN00006:   6   -0.399670   -0.248981  2.00000000
:BAN00007:   7   -0.361535   -0.241632  2.00000000
:BAN00008:   8   -0.286036   -0.232674  2.00000000
:BAN00009:   9    0.733680    0.883700  2.00000000
:BAN00010:  10    0.792403    0.901405  2.00000000
:BAN00011:  11    0.817785    0.933077  2.00000000
:BAN00012:  12    0.882260    0.939861  1.97959385
:BAN00013:  13    0.898341    0.953361  1.35366828
:BAN00014:  14    0.919250    0.961662  0.66673787
:BAN00015:  15    0.936088    0.965672  0.00000000
:BAN00016:  16    0.942565    0.968471  0.00000000
:BAN00017:  17    0.955853    0.974429  0.00000000
:BAN00018:  18    0.960437    0.976202  0.00000000
:BAN00019:  19    0.967527    0.983200  0.00000000
        Energy to separate low and high energystates:    0.68368


:NOE  : NUMBER OF ELECTRONS          =   26.000

:FER  : F E R M I - ENERGY(TETRAH.M.)=   0.9355068543
:GMA  : POTENTIAL AND CHARGE CUT-OFF  12.00 Ry**.5

:POS001: ATOM   -1 X,Y,Z = 0.00000 0.89750 0.25000  MULT= 2  ZZ= 59.000  Pr1       

       LMMAX 16
       LM=   0 0  1 0  2 0  2 2  3 0  3 2  4 0  4 2  4 4  5 0  5 2  5 4  6 0  6 2  6 4  6 6

:CHA001: TOTAL VALENCE CHARGE INSIDE SPHERE   1 =   9.6714    (RMT=  2.3000 )
:PCS001: PARTIAL CHARGES SPHERE =  1 S,P,D,F,PX,PY,PZ,D-Z2,D-X2Y2,D-XY,D-XZ,D-YZ 
:QTL001: 1.9396 4.9867 0.7277 2.0162 1.6605 1.6576 1.6686 0.1405 0.1297 0.1508 0.1489 0.1577
        Q-s-low E-s-low   Q-p-low E-p-low   Q-d-low E-d-low   Q-f-low E-f-low
:EPL001:  1.8687 -1.6592    4.9077 -0.3453    0.0095 -0.3849    0.0029 -0.3936
        Q-s-hi  E-s-hi    Q-p-hi  E-p-hi    Q-d-hi  E-d-hi    Q-f-hi  E-f-hi 
:EPH001:  0.0708  0.8460    0.0790  0.8748    0.7181  0.8609    2.0133  0.9097

                      VXX         VYY         VZZ       UP TO R
:VZZ001:             2.38020     7.25909    -9.63929       2.300

:CHA  : TOTAL VALENCE CHARGE INSIDE UNIT CELL =      26.000000

:SUM  : SUM OF EIGENVALUES =          -2.033121326


        1.ATOM      Pr1                  14 CORE STATES
       CORE-FORCE in mRy/a.u. = |F|      Fx             Fy             Fz
:FCO001:   1.ATOM   1648.984201246994      0.000000000000      0.000000000000   1648.984201246994

:1S 001: 1S               -3066.661625989 Ry
:2S 001: 2S                -492.415625456 Ry
:2PP001: 2P*               -465.514153936 Ry
:2P 001: 2P                -430.116872800 Ry
:3S 001: 3S                -105.512535104 Ry
:3PP001: 3P*                -94.050112732 Ry
:3P 001: 3P                 -87.042406108 Ry
:3DD001: 3D*                -66.968548958 Ry
:3D 001: 3D                 -65.457075596 Ry
:4S 001: 4S                 -20.180568677 Ry
:4PP001: 4P*                -15.886445748 Ry
:4P 001: 4P                 -14.357758041 Ry
:4DD001: 4D*                 -7.288165061 Ry
:4D 001: 4D                  -7.018313365 Ry
:CINT001 Core Integral Atom   1   45.998504

       DENSITY AT NUCLEUS
        JATOM        VALENCE       SEMI-CORE          CORE           TOTAL
:RTO001:   1      648.024321        0.000000   656826.177272   657474.201593
     
       CHARGES OF NEW CHARGE DENSITY
:NTO   : INTERSTITIAL CHARGE =     6.657134
:NPC   : PW Pseudocharge     =    17.409110
:NTO001: CHARGE SPHERE  1    =    55.669937

:NEC01: NUCLEAR AND ELECTRONIC CHARGE    118.00000   117.99701
     
       CHARGES OF OLD CHARGE DENSITY
:OTO   : INTERSTITIAL CHARGE =     6.660135
:OPC   : PW Pseudocharge     =    17.416945
:OTO001: CHARGE SPHERE  1    =    55.669932

:NEC02: NUCLEAR AND ELECTRONIC CHARGE    118.00000   118.00000
     
       CONVERGENCE TEST
:DTO001: DIFFERENCE IN SPHERE  1 =  0.0000262

:DIS  :  CHARGE DISTANCE       ( 0.0000262 for atom    1 spin 1)      0.0000262
 PW Mixed is          360
 
******************************************************
* MULTISECANT MIXING VER9 RELEASE 10.4.0              *
* Standard Mode with controls                        *
* Fixed density scale                                *
* Regularization       1.000E-04                     *
* Trust Upper Limit    5.000E+00                     *
* Max Number of Memory Steps    8                    *
******************************************************
 
:PWTMP   2.3819E+02  1.9467E+02  3.4012E+02
:PLANE:  PW TOTAL      5.6499 DISTAN   1.02E-05  1.80E-04 %
:CHARG:  CLM/ATOM   1381.9548 DISTAN   4.22E-05  3.05E-06 %
 
Step History
        DMIX         DMIXT        Red     Pred      Trust     Lambda    MagRel    MagAbs     Beta
 10   5.7187E-02   5.7187E-02  3.36E-01  3.05E-01  7.60E-01  2.17E+00  1.90E-01  4.33E-02  1.00E+00
 11   8.4308E-02   8.4308E-02  1.40E+00  4.97E-01  1.01E+00  2.21E+00  4.41E-01  3.38E-02  8.00E-01
 12   6.9720E-02   6.9720E-02  3.27E-01  3.88E-01  7.60E-01  2.06E+00  2.34E-01  2.51E-02  6.40E-01
 13   1.2538E-01   1.2538E-01  6.18E-01  3.15E-01  1.01E+00  1.94E+00  2.63E-01  9.25E-03  8.00E-01
 14   1.9491E-01   1.9491E-01  1.34E-01  1.86E-01  1.35E+00  2.08E+00  3.64E-01  7.91E-03  1.00E+00
 15   2.0596E-01   2.0596E-01  3.45E-01  5.61E-01  1.80E+00  1.33E+00  5.82E-01  1.69E-03  1.00E+00
 16   2.1919E-01   2.1919E-01  3.83E-01  6.00E-01  2.40E+00  1.93E+00  6.01E-01  6.03E-04  1.00E+00
 17   2.3494E-01   2.3494E-01  5.12E-01  7.45E-01  3.20E+00  1.87E+00  5.46E-01  2.09E-04  9.88E-01
 18   3.4595E-01   3.4595E-01 -1.00E+00  2.13E-01  4.27E+00  1.00E+00  8.32E-01  1.63E-04  1.00E+00
:JACOBIANS    7.868E-01   3.511E+00
  
:NORMS:  1/Froebius, Min, Max, Used   0.6402E+00  0.5621E+00  0.1002E+01  0.6756E+00
:INFO :  Number of Memory Steps    8 Skipping    9
:INFO :  SLambda=    1.6561592112  Max    1.6561592112
:PREDicted Charge, CTotal, PW Trust    2.886E-05   5.772E-05   1.367E-04
:PREDicted DMix, Beta, BLim   7.8954E-02  9.8877E-01  6.1265E+00

Eigenvalues, unscaled except for SY+YY
   #     SY Real        SY Imag          SS             YY         SY+YY Real      SY+YY Imag
   1   1.917698E+00   0.000000E+00   1.799957E+00   3.943306E+00   6.090979E+00   0.000000E+00
   2   1.264641E+00   0.000000E+00   8.010837E-01   2.133046E+00   5.225453E+00   0.000000E+00
   3   7.923562E-01   0.000000E+00   5.085186E-01   1.213337E+00   2.508243E+00   0.000000E+00
   4   2.035924E-01   0.000000E+00   1.188271E-01   4.676029E-01   8.347272E-01   0.000000E+00
   5   8.045038E-02   0.000000E+00   4.119730E-02   1.852148E-01   3.238848E-01   0.000000E+00
   6   1.956473E-02   0.000000E+00   7.545769E-03   4.535077E-02   8.775934E-02   0.000000E+00
   7   6.104826E-04   0.000000E+00   1.691371E-03   9.814366E-03   3.614981E-03   0.000000E+00
   8   4.387997E-03   0.000000E+00   1.173887E-04   2.328706E-03   1.916718E-02   0.000000E+00
 
:INFO :  Singular value  6.107E+00 Weight  1.000E+00 Projection -1.670E-05
:INFO :  Singular value  5.219E+00 Weight  1.000E+00 Projection  6.934E-06
:INFO :  Singular value  2.507E+00 Weight  1.000E+00 Projection -2.690E-06
:INFO :  Singular value  8.349E-01 Weight  1.000E+00 Projection  3.377E-06
:INFO :  Singular value  3.239E-01 Weight  1.000E+00 Projection  1.189E-05
:INFO :  Singular value  8.768E-02 Weight  1.000E+00 Projection  4.739E-07
:INFO :  Singular value  1.917E-02 Weight  9.996E-01 Projection  2.181E-05
:INFO :  Singular value  3.614E-03 Weight  9.882E-01 Projection -3.272E-04
:RANK :  ACTIVE   7.99/8  =  99.85 % ; YY RANK   7.97/8  =  99.63 %
 
:DLIM :  Beta Active  9.916E-01
:BLIM :  VZERO Control Off
:TRUST:  Step 5.69E+00  Charge 9.35E-03 (e) CTO  1.87E-02 (e) PW  2.13E-02 (e)
:DIRM :  MEMORY  8/8  SCALE   1.000 RED  0.22 PRED  0.21 NEXT  0.37 BETA  0.99
:TRAVE:  Charge 6.93E-05 (e) CTO  1.39E-04 (e) PW  2.36E-04 (e)
:DIRP :  |MSR1|= 7.802E-06 |PRATT|= 1.018E-05 ANGLE=  39.2 DEGREES
:DIRQ :  |MSR1|= 1.396E-05 |PRATT|= 4.220E-05 ANGLE=  43.9 DEGREES
:DIRT :  |MSR1|= 1.599E-05 |PRATT|= 4.341E-05 ANGLE=  45.6 DEGREES
:MIX  :   MSE1   REGULARIZATION:  3.94E-04 GREED: 0.18004  Newton 1.00  0.3684                
     
       CHARGES OF MIXED CHARGE DENSITY
:CTO   : INTERSTITIAL CHARGE =     6.660139
:CPC   : PW Pseudocharge     =    17.416953
:CTO001: CHARGE SPHERE  1    =    55.669931

:NEC03: NUCLEAR AND ELECTRONIC CHARGE    118.00000   118.00000

PW CHANGE     H    K    L      Current       Change    Residue
:PTO001:      0    0    0  7.07908354E-02  3.500E-08 -4.980E-08
:PTO003:      0    2    0  1.73363454E-02  3.657E-08  5.394E-08
:PTO004:     -1    1    0  8.30056333E-02  9.868E-08  8.163E-08
:PTO005:      0    2   -1 -9.53414378E-02 -7.577E-08  2.264E-09
:PTO006:      0    0   -2 -4.94135116E-02 -4.008E-08 -8.144E-09
:PTO007:     -1    1   -1 -1.00476931E-01 -4.421E-08  7.106E-08
:PTO008:      0    2   -2 -1.47598850E-02  1.834E-08  9.577E-08
:PTO009:     -1    1   -2 -7.46929189E-02 -1.003E-07 -7.074E-08
:PTO011:     -1    3    0 -1.15555074E-02  1.473E-08  4.436E-08
:PTO012:     -1    3   -1 -4.84697741E-02 -1.477E-07 -2.037E-07
:PTO013:      0    4    0 -8.45674391E-03 -2.617E-08 -2.428E-08
:PTO014:      0    2   -3  1.95057100E-02  8.146E-08  1.118E-07

:ENE  : ********** TOTAL ENERGY IN Ry =       -36944.27738834

       TOTAL FORCE IN mRy/a.u. = |F|     Fx             Fy             Fz     with/without FOR in case.in2
:FOR001:   1.ATOM          8.646          0.000          0.000         -8.646 partial forces
       TOTAL FORCE WITH RESPECT TO GLOBAL CARTESIAN COORDINATES:
:FCA001:   1.ATOM                         0.000         -8.646          0.000 partial forces
       TOTAL FORCE WITH RESPECT TO THE GLOBAL COORDINATE SYSTEM:
:FGL001:   1.ATOM                 0.000000000    -8.646225032     0.000000000 partial forces
